acetone.data - created by mBuild; units = real

2000 atoms
1800 bonds
3000 angles
2400 dihedrals
0 impropers

4 atom types
3 bond types
4 angle types
2 dihedral types

0.000000 40.000000 xlo xhi
0.000000 40.000000 ylo yhi
0.000000 40.000000 zlo zhi

Masses

1	12.010780	# opls_135
2	12.010780	# opls_280
3	15.999430	# opls_281
4	1.007947	# opls_282

Pair Coeffs # lj
#	epsilon (kcal/mol)		sigma (Angstrom)
1	0.06600		3.50000		# opls_135
2	0.10500		3.75000		# opls_280
3	0.21000		2.96000		# opls_281
4	0.01500		2.42000		# opls_282

Bond Coeffs # harmonic
#	k(kcal/mol/angstrom^2)		req(angstrom)
1	317.0		1.522		# opls_135	opls_280
2	570.0		1.229		# opls_280	opls_281
3	340.0		1.09		# opls_135	opls_282

Angle Coeffs # harmonic
#	k(kcal/mol/rad^2)		theteq(deg)
1	80.0		120.40000	# opls_135	opls_280	opls_281
2	70.0		116.00000	# opls_135	opls_280	opls_135
3	35.0		109.50000	# opls_280	opls_135	opls_282
4	33.0		107.80000	# opls_282	opls_135	opls_282

Dihedral Coeffs # opls
#	f1(kcal/mol)	f2(kcal/mol)	f3(kcal/mol)	f4(kcal/mol)
1	0.00000	-0.00000		0.27500		-0.00000	# opls_135	opls_280	opls_135	opls_282
2	-0.00000	-0.00000		-0.00000		-0.00000	# opls_281	opls_280	opls_135	opls_282

Atoms # full

1	1	1	-0.180000	4.255933	22.585715	20.747419
2	1	2	0.470000	5.399263	22.485428	19.784760
3	1	3	-0.470000	5.176131	22.244884	18.608255
4	1	1	-0.180000	6.809842	22.677399	20.253018
5	1	4	0.060000	3.699514	21.625270	20.766199
6	1	4	0.060000	3.570416	23.398451	20.428147
7	1	4	0.060000	4.620962	22.807746	21.772637
8	1	4	0.060000	7.522567	22.568143	19.407758
9	1	4	0.060000	7.052376	21.918748	21.026264
10	1	4	0.060000	6.923247	23.692336	20.688134
11	2	1	-0.180000	4.309391	8.087391	24.434918
12	2	2	0.470000	3.035569	7.714544	25.129423
13	2	3	-0.470000	1.998550	8.287916	24.833366
14	2	1	-0.180000	3.024341	6.646962	26.181086
15	2	4	0.060000	4.530583	9.160532	24.613389
16	2	4	0.060000	4.203413	7.913182	23.343667
17	2	4	0.060000	5.158340	7.479419	24.813428
18	2	4	0.060000	1.999262	6.504491	26.585182
19	2	4	0.060000	3.700183	6.936081	27.012910
20	2	4	0.060000	3.372937	5.688445	25.742896
21	3	1	-0.180000	23.142861	17.662062	20.276386
22	3	2	0.470000	22.262407	18.549126	21.102154
23	3	3	-0.470000	22.766912	19.406115	21.811280
24	3	1	-0.180000	20.772384	18.393303	21.064688
25	3	4	0.060000	23.829866	17.096834	20.940426
26	3	4	0.060000	23.740481	18.280089	19.574032
27	3	4	0.060000	22.536841	16.939185	19.690039
28	3	4	0.060000	20.283308	19.131374	21.735831
29	3	4	0.060000	20.496182	17.370325	21.395616
30	3	4	0.060000	20.406777	18.553854	20.028908
31	4	1	-0.180000	30.827388	31.317744	5.384502
32	4	2	0.470000	30.764704	30.252135	6.435465
33	4	3	-0.470000	29.697644	29.710869	6.680877
34	4	1	-0.180000	31.997300	29.846779	7.185297
35	4	4	0.060000	30.154309	32.155511	5.662926
36	4	4	0.060000	30.503661	30.898253	4.408983
37	4	4	0.060000	31.861502	31.709289	5.280030
38	4	4	0.060000	31.764289	29.047877	7.921394
39	4	4	0.060000	32.409301	30.723745	7.727024
40	4	4	0.060000	32.758734	29.466199	6.472793
41	5	1	-0.180000	25.146198	11.121180	29.003409
42	5	2	0.470000	23.988725	10.581560	28.220440
43	5	3	-0.470000	24.059844	10.525564	27.002401
44	5	1	-0.180000	22.748542	10.111584	28.918238
45	5	4	0.060000	25.349847	12.167619	28.693729
46	5	4	0.060000	26.047140	10.501744	28.811029
47	5	4	0.060000	24.927816	11.106443	30.092311
48	5	4	0.060000	21.999190	9.746214	28.183831
49	5	4	0.060000	22.305179	10.949864	29.495300
50	5	4	0.060000	23.002633	9.283607	29.612626
51	6	1	-0.180000	19.968763	29.377239	19.541886
52	6	2	0.470000	18.806770	28.557393	19.071142
53	6	3	-0.470000	18.977809	27.384485	18.776447
54	6	1	-0.180000	17.440810	29.163653	18.959536
55	6	4	0.060000	20.748864	29.405335	18.752543
56	6	4	0.060000	20.395879	28.924569	20.461162
57	6	4	0.060000	19.652210	30.417318	19.769143
58	6	4	0.060000	16.706437	28.413074	18.596624
59	6	4	0.060000	17.467271	30.013112	18.245390
60	6	4	0.060000	17.114206	29.532235	19.954403
61	7	1	-0.180000	3.046469	9.852044	12.172577
62	7	2	0.470000	3.949573	10.894874	11.588726
63	7	3	-0.470000	4.520205	10.673489	10.531757
64	7	1	-0.180000	4.157291	12.203148	12.289530
65	7	4	0.060000	3.624353	8.923678	12.363875
66	7	4	0.060000	2.224509	9.630013	11.460191
67	7	4	0.060000	2.605337	10.202437	13.129782
68	7	4	0.060000	4.854470	12.850013	11.715173
69	7	4	0.060000	4.585184	12.022099	13.297703
70	7	4	0.060000	3.185019	12.728596	12.393811
71	8	1	-0.180000	32.003492	25.667049	23.415469
72	8	2	0.470000	33.047757	26.633048	23.884862
73	8	3	-0.470000	33.808447	26.307485	24.783290
74	8	1	-0.180000	33.165523	27.991170	23.262376
75	8	4	0.060000	31.332024	25.405076	24.259809
76	8	4	0.060000	32.492253	24.744499	23.038080
77	8	4	0.060000	31.394893	26.109307	22.598382
78	8	4	0.060000	33.989799	28.568727	23.732881
79	8	4	0.060000	32.214797	28.547636	23.399300
80	8	4	0.060000	33.375292	27.886907	22.177290
81	9	1	-0.180000	18.855966	18.496811	8.697853
82	9	2	0.470000	18.217680	17.194578	9.073022
83	9	3	-0.470000	17.463329	17.148412	10.032520
84	9	1	-0.180000	18.496934	15.952434	8.282485
85	9	4	0.060000	19.469342	18.868703	9.545128
86	9	4	0.060000	18.068731	19.243162	8.461992
87	9	4	0.060000	19.510607	18.374355	7.808997
88	9	4	0.060000	17.941112	15.086690	8.701923
89	9	4	0.060000	19.583784	15.728424	8.311843
90	9	4	0.060000	18.182850	16.102969	7.228457
91	10	1	-0.180000	36.495700	13.318947	9.055304
92	10	2	0.470000	35.203701	13.075314	8.337421
93	10	3	-0.470000	34.364399	13.961462	8.291312
94	10	1	-0.180000	34.934386	11.756928	7.677737
95	10	4	0.060000	36.291027	13.556391	10.120263
96	10	4	0.060000	37.026912	14.173561	8.586415
97	10	4	0.060000	37.149204	12.422115	9.007976
98	10	4	0.060000	33.932865	11.755739	7.196766
99	10	4	0.060000	34.968441	10.946893	8.436003
100	10	4	0.060000	35.704495	11.564206	6.901802
101	11	1	-0.180000	11.104624	20.213863	24.628834
102	11	2	0.470000	10.921961	21.155965	23.478594
103	11	3	-0.470000	10.131298	20.875746	22.590819
104	11	1	-0.180000	11.699489	22.435230	23.409425
105	11	4	0.060000	11.454733	19.229927	24.252398
106	11	4	0.060000	10.137645	20.079372	25.157295
107	11	4	0.060000	11.853350	20.608758	25.347918
108	11	4	0.060000	11.437143	23.005200	22.492535
109	11	4	0.060000	12.786415	22.210309	23.392519
110	11	4	0.060000	11.469024	23.059949	24.297624
111	12	1	-0.180000	27.426321	20.039619	16.457091
112	12	2	0.470000	28.610248	19.140633	16.272387
113	12	3	-0.470000	29.046948	18.943696	15.148856
114	12	1	-0.180000	29.260465	18.483469	17.451882
115	12	4	0.060000	26.559345	19.634005	15.894740
116	12	4	0.060000	27.666111	21.054337	16.075965
117	12	4	0.060000	27.152127	20.116299	17.530661
118	12	4	0.060000	30.118483	17.856150	17.128381
119	12	4	0.060000	28.522206	17.839003	17.973343
120	12	4	0.060000	29.629226	19.259661	18.154609
121	13	1	-0.180000	22.172551	24.507963	21.942961
122	13	2	0.470000	20.910067	24.574368	22.746515
123	13	3	-0.470000	20.358586	23.539312	23.087602
124	13	1	-0.180000	20.320847	25.896808	23.133590
125	13	4	0.060000	21.979037	23.974786	20.988664
126	13	4	0.060000	22.950207	23.960546	22.515668
127	13	4	0.060000	22.548741	25.527429	21.713212
128	13	4	0.060000	19.390478	25.754545	23.723974
129	13	4	0.060000	20.079577	26.479131	22.219822
130	13	4	0.060000	21.050970	26.464888	23.747177
131	14	1	-0.180000	33.841199	5.723291	23.999909
132	14	2	0.470000	33.943219	6.745760	22.909899
133	14	3	-0.470000	35.002244	6.892235	22.319284
134	14	1	-0.180000	32.759590	7.587266	22.540110
135	14	4	0.060000	34.570537	5.960497	24.802535
136	14	4	0.060000	34.065584	4.716837	23.588678
137	14	4	0.060000	32.819994	5.711782	24.436512
138	14	4	0.060000	33.017058	8.286824	21.716273
139	14	4	0.060000	32.431728	8.177166	23.421477
140	14	4	0.060000	31.926659	6.933220	22.207341
141	15	1	-0.180000	24.163494	13.394869	6.504803
142	15	2	0.470000	25.613279	13.202430	6.828940
143	15	3	-0.470000	25.980126	12.161154	7.351414
144	15	1	-0.180000	26.613305	14.274383	6.517944
145	15	4	0.060000	23.561959	13.330094	7.435593
146	15	4	0.060000	23.831326	12.604236	5.799840
147	15	4	0.060000	23.991730	14.387107	6.036216
148	15	4	0.060000	27.633825	13.960569	6.825252
149	15	4	0.060000	26.345156	15.203662	7.062756
150	15	4	0.060000	26.614584	14.477636	5.426628
151	16	1	-0.180000	13.786101	6.412942	4.223556
152	16	2	0.470000	13.855384	6.238349	5.709722
153	16	3	-0.470000	13.782783	7.218479	6.434902
154	16	1	-0.180000	14.012568	4.874721	6.311110
155	16	4	0.060000	14.619167	7.064366	3.885834
156	16	4	0.060000	12.819484	6.884606	3.948614
157	16	4	0.060000	13.865925	5.433202	3.706494
158	16	4	0.060000	14.045142	4.935878	7.419973
159	16	4	0.060000	14.956052	4.414603	5.949982
160	16	4	0.060000	13.155955	4.234802	6.012777
161	17	1	-0.180000	33.249725	26.744119	30.269581
162	17	2	0.470000	31.973368	27.503103	30.072529
163	17	3	-0.470000	32.005574	28.720328	29.976939
164	17	1	-0.180000	30.661901	26.782381	29.992107
165	17	4	0.060000	33.740858	27.078416	31.207367
166	17	4	0.060000	33.931035	26.932515	29.413583
167	17	4	0.060000	33.054054	25.652926	30.337590
168	17	4	0.060000	29.827278	27.500849	29.845183
169	17	4	0.060000	30.487977	26.218926	30.932614
170	17	4	0.060000	30.678199	26.072992	29.138417
171	18	1	-0.180000	15.867711	31.771143	27.200762
172	18	2	0.470000	14.612020	30.969083	27.046129
173	18	3	-0.470000	14.684740	29.757592	26.908959
174	18	1	-0.180000	13.271980	31.639901	27.058459
175	18	4	0.060000	16.508629	31.636159	26.304429
176	18	4	0.060000	16.420742	31.427590	28.099948
177	18	4	0.060000	15.635129	32.851193	27.314836
178	18	4	0.060000	12.458245	30.894100	26.931994
179	18	4	0.060000	13.215719	32.375403	26.228908
180	18	4	0.060000	13.127811	32.166786	28.024840
181	19	1	-0.180000	27.535750	33.711152	4.049207
182	19	2	0.470000	27.584837	35.184114	4.317434
183	19	3	-0.470000	28.154970	35.921021	3.527669
184	19	1	-0.180000	26.941803	35.758107	5.543360
185	19	4	0.060000	28.568580	33.307557	3.996469
186	19	4	0.060000	27.021579	33.525453	3.083001
187	19	4	0.060000	26.985227	33.180939	4.855068
188	19	4	0.060000	27.076570	36.860383	5.578063
189	19	4	0.060000	27.402743	35.312292	6.449488
190	19	4	0.060000	25.855386	35.530238	5.535810
191	20	1	-0.180000	11.991036	29.339356	11.126521
192	20	2	0.470000	13.179510	29.771242	10.323417
193	20	3	-0.470000	13.316462	30.950858	10.037824
194	20	1	-0.180000	14.198063	28.770090	9.869437
195	20	4	0.060000	11.059207	29.597912	10.581312
196	20	4	0.060000	11.995863	29.858707	12.107673
197	20	4	0.060000	12.010186	28.242811	11.302126
198	20	4	0.060000	15.005215	29.266424	9.289320
199	20	4	0.060000	13.710753	28.008389	9.225523
200	20	4	0.060000	14.647624	28.269244	10.752235
201	21	1	-0.180000	22.926987	11.324163	9.980153
202	21	2	0.470000	21.754221	12.249260	9.867063
203	21	3	-0.470000	21.561867	12.852296	8.822476
204	21	1	-0.180000	20.818569	12.439574	11.022134
205	21	4	0.060000	23.866600	11.892184	9.816172
206	21	4	0.060000	22.845674	10.524385	9.214547
207	21	4	0.060000	22.963968	10.854213	10.985833
208	21	4	0.060000	20.011805	13.157056	10.759972
209	21	4	0.060000	21.379393	12.834584	11.894904
210	21	4	0.060000	20.358232	11.466471	11.293141
211	22	1	-0.180000	24.504903	15.092385	22.933621
212	22	2	0.470000	24.363271	14.255460	21.699331
213	22	3	-0.470000	24.513990	14.770692	20.602229
214	22	1	-0.180000	24.039153	12.795810	21.800434
215	22	4	0.060000	23.759249	15.914584	22.913704
216	22	4	0.060000	25.525841	15.526495	22.974141
217	22	4	0.060000	24.339475	14.481488	23.846338
218	22	4	0.060000	23.972978	12.337322	20.790588
219	22	4	0.060000	23.065587	12.665147	22.317523
220	22	4	0.060000	24.832586	12.276968	22.377973
221	23	1	-0.180000	28.424568	7.493747	27.772147
222	23	2	0.470000	27.083647	7.463754	28.439234
223	23	3	-0.470000	26.226429	8.266524	28.103747
224	23	1	-0.180000	26.787305	6.459537	29.511421
225	23	4	0.060000	28.899502	8.483865	27.934972
226	23	4	0.060000	28.302217	7.322495	26.682142
227	23	4	0.060000	29.089275	6.705837	28.185639
228	23	4	0.060000	25.750353	6.584036	29.890378
229	23	4	0.060000	27.495660	6.595269	30.355277
230	23	4	0.060000	26.898237	5.433631	29.102158
231	24	1	-0.180000	29.225083	6.710322	21.833348
232	24	2	0.470000	28.921822	5.263538	21.590816
233	24	3	-0.470000	28.281721	4.635530	22.420087
234	24	1	-0.180000	29.396391	4.583472	20.342558
235	24	4	0.060000	29.813274	6.815828	22.768927
236	24	4	0.060000	28.276351	7.278161	21.932726
237	24	4	0.060000	29.811241	7.137543	20.992209
238	24	4	0.060000	29.081693	3.518001	20.331873
239	24	4	0.060000	30.504286	4.630162	20.290861
240	24	4	0.060000	28.967010	5.092601	19.454468
241	25	1	-0.180000	27.794327	33.866410	11.859327
242	25	2	0.470000	26.911380	33.678762	10.663850
243	25	3	-0.470000	27.080392	34.376065	9.675408
244	25	1	-0.180000	25.826057	32.645387	10.671764
245	25	4	0.060000	27.693045	34.905120	12.237789
246	25	4	0.060000	28.851446	33.683401	11.573994
247	25	4	0.060000	27.515656	33.161224	12.670912
248	25	4	0.060000	25.275055	32.647128	9.706999
249	25	4	0.060000	25.111110	32.862051	11.492856
250	25	4	0.060000	26.269778	31.640051	10.828908
251	26	1	-0.180000	34.895907	33.703104	7.550908
252	26	2	0.470000	34.333036	34.089865	6.217654
253	26	3	-0.470000	35.035770	34.010767	5.221802
254	26	1	-0.180000	32.919016	34.571420	6.097215
255	26	4	0.060000	35.772943	34.342344	7.784549
256	26	4	0.060000	35.215260	32.640178	7.526214
257	26	4	0.060000	34.137140	33.830119	8.352004
258	26	4	0.060000	32.674670	34.811868	5.040400
259	26	4	0.060000	32.782647	35.484902	6.713039
260	26	4	0.060000	32.224836	33.782344	6.454645
261	27	1	-0.180000	29.896695	10.078826	4.001362
262	27	2	0.470000	28.932319	9.533750	5.009750
263	27	3	-0.470000	29.001534	8.358409	5.334708
264	27	1	-0.180000	27.886944	10.416876	5.620596
265	27	4	0.060000	29.788827	9.524779	3.045430
266	27	4	0.060000	30.934705	9.960339	4.376732
267	27	4	0.060000	29.705017	11.156631	3.813720
268	27	4	0.060000	27.264394	9.846780	6.342954
269	27	4	0.060000	27.229521	10.822546	4.823407
270	27	4	0.060000	28.375663	11.258205	6.155015
271	28	1	-0.180000	31.036938	6.768770	10.539378
272	28	2	0.470000	29.726176	6.067163	10.356004
273	28	3	-0.470000	29.133504	5.634219	11.332279
274	28	1	-0.180000	29.138822	5.893204	8.988303
275	28	4	0.060000	31.764681	6.079627	11.016747
276	28	4	0.060000	30.895841	7.657762	11.189141
277	28	4	0.060000	31.447148	7.101349	9.562274
278	28	4	0.060000	28.169264	5.353440	9.042985
279	28	4	0.060000	29.838226	5.309683	8.353778
280	28	4	0.060000	28.969186	6.888181	8.526213
281	29	1	-0.180000	34.771591	19.736545	12.551108
282	29	2	0.470000	34.056653	18.635472	13.272548
283	29	3	-0.470000	33.201785	18.913502	14.099418
284	29	1	-0.180000	34.381491	17.200389	12.988174
285	29	4	0.060000	35.300777	20.380249	13.284603
286	29	4	0.060000	34.037873	20.351177	11.988708
287	29	4	0.060000	35.514543	19.323334	11.836339
288	29	4	0.060000	33.757136	16.525352	13.611780
289	29	4	0.060000	35.451358	17.008639	13.213785
290	29	4	0.060000	34.188163	16.979561	11.917593
291	30	1	-0.180000	34.634702	15.847813	22.683827
292	30	2	0.470000	33.235633	15.351111	22.883494
293	30	3	-0.470000	33.010629	14.151477	22.838052
294	30	1	-0.180000	32.114011	16.311945	23.137690
295	30	4	0.060000	34.999903	15.539613	21.681804
296	30	4	0.060000	35.297831	15.416280	23.462575
297	30	4	0.060000	34.674456	16.955570	22.753897
298	30	4	0.060000	31.152372	15.769336	23.260994
299	30	4	0.060000	32.022482	17.012863	22.281758
300	30	4	0.060000	32.320479	16.889502	24.062938
301	31	1	-0.180000	25.332666	33.544453	35.928760
302	31	2	0.470000	25.869085	32.172665	36.201569
303	31	3	-0.470000	25.119638	31.306873	36.626476
304	31	1	-0.180000	27.313432	31.855959	35.957820
305	31	4	0.060000	24.920285	33.976053	36.864747
306	31	4	0.060000	24.526205	33.484563	35.168206
307	31	4	0.060000	26.133654	34.213564	35.548861
308	31	4	0.060000	27.531968	30.797141	36.213799
309	31	4	0.060000	27.950344	32.514668	36.584501
310	31	4	0.060000	27.556174	32.023064	34.887569
311	32	1	-0.180000	30.171016	27.945313	18.390328
312	32	2	0.470000	30.042836	29.228210	19.153033
313	32	3	-0.470000	28.964982	29.801539	19.189618
314	32	1	-0.180000	31.223240	29.811264	19.868958
315	32	4	0.060000	29.918407	28.119466	17.323431
316	32	4	0.060000	29.474702	27.190330	18.811701
317	32	4	0.060000	31.207246	27.550411	18.452725
318	32	4	0.060000	30.945164	30.759000	20.377730
319	32	4	0.060000	32.034696	30.020414	19.140892
320	32	4	0.060000	31.590888	29.091064	20.629504
321	33	1	-0.180000	2.936743	31.799289	6.097321
322	33	2	0.470000	4.077202	30.867633	6.371810
323	33	3	-0.470000	4.502720	30.756513	7.511283
324	33	1	-0.180000	4.697657	30.073747	5.262471
325	33	4	0.060000	3.223082	32.832978	6.383515
326	33	4	0.060000	2.051031	31.488574	6.690093
327	33	4	0.060000	2.667878	31.787953	5.019732
328	33	4	0.060000	5.525046	29.440336	5.647954
329	33	4	0.060000	5.103171	30.762978	4.492534
330	33	4	0.060000	3.930851	29.418265	4.799182
331	34	1	-0.180000	9.069397	4.150447	5.518443
332	34	2	0.470000	7.816241	4.424919	4.744984
333	34	3	-0.470000	6.997655	5.216600	5.186539
334	34	1	-0.180000	7.560503	3.737676	3.438022
335	34	4	0.060000	8.808627	3.744024	6.518057
336	34	4	0.060000	9.642431	5.092699	5.645726
337	34	4	0.060000	9.707664	3.412538	4.987671
338	34	4	0.060000	6.588281	4.060655	3.008084
339	34	4	0.060000	7.535994	2.638779	3.593287
340	34	4	0.060000	8.369990	3.987764	2.720756
341	35	1	-0.180000	12.674561	6.850526	9.963092
342	35	2	0.470000	12.094780	5.552971	10.436568
343	35	3	-0.470000	11.640172	5.473926	11.567450
344	35	1	-0.180000	12.068563	4.355397	9.536022
345	35	4	0.060000	13.522078	7.141024	10.618633
346	35	4	0.060000	11.896643	7.641648	10.000207
347	35	4	0.060000	13.043976	6.760785	8.919495
348	35	4	0.060000	11.605122	3.486826	10.050985
349	35	4	0.060000	13.104993	4.086684	9.242954
350	35	4	0.060000	11.479184	4.587424	8.624386
351	36	1	-0.180000	4.048235	21.753447	34.823996
352	36	2	0.470000	5.121163	22.620316	34.239756
353	36	3	-0.470000	4.881028	23.287183	33.245052
354	36	1	-0.180000	6.482199	22.675111	34.864603
355	36	4	0.060000	3.718978	21.008768	34.069374
356	36	4	0.060000	3.181695	22.381385	35.119311
357	36	4	0.060000	4.420814	21.213659	35.720338
358	36	4	0.060000	7.145513	23.365723	34.301178
359	36	4	0.060000	6.934903	21.661537	34.861312
360	36	4	0.060000	6.397496	23.034470	35.911490
361	37	1	-0.180000	19.537089	9.307893	9.198217
362	37	2	0.470000	18.571835	8.449008	8.440209
363	37	3	-0.470000	18.743103	7.240272	8.402299
364	37	1	-0.180000	17.401723	9.059837	7.730575
365	37	4	0.060000	20.555135	9.189956	8.771506
366	37	4	0.060000	19.550663	9.000792	10.264948
367	37	4	0.060000	19.245626	10.377941	9.137718
368	37	4	0.060000	16.796932	8.277115	7.224657
369	37	4	0.060000	17.763281	9.781395	6.968398
370	37	4	0.060000	16.758578	9.592188	8.462184
371	38	1	-0.180000	28.722512	4.717070	15.391550
372	38	2	0.470000	28.518448	6.143102	14.980744
373	38	3	-0.470000	29.477214	6.809004	14.621362
374	38	1	-0.180000	27.151371	6.756490	15.007397
375	38	4	0.060000	29.422484	4.673901	16.252123
376	38	4	0.060000	29.150886	4.142827	14.543524
377	38	4	0.060000	27.759847	4.250168	15.689699
378	38	4	0.060000	27.189284	7.815107	14.672327
379	38	4	0.060000	26.747581	6.722244	16.040869
380	38	4	0.060000	26.475921	6.191048	14.331877
381	39	1	-0.180000	9.686980	24.642756	14.161540
382	39	2	0.470000	9.810050	24.008301	12.810136
383	39	3	-0.470000	10.637775	24.433245	12.018867
384	39	1	-0.180000	8.928132	22.860070	12.423301
385	39	4	0.060000	9.428613	25.716303	14.046854
386	39	4	0.060000	10.652042	24.555491	14.703247
387	39	4	0.060000	8.894388	24.146091	14.760487
388	39	4	0.060000	9.157899	22.518674	11.391296
389	39	4	0.060000	7.864715	23.175433	12.467725
390	39	4	0.060000	9.088426	22.014355	13.124269
391	40	1	-0.180000	24.817410	24.735780	31.262335
392	40	2	0.470000	23.380272	25.108300	31.062745
393	40	3	-0.470000	22.513315	24.259641	31.204084
394	40	1	-0.180000	22.999833	26.509672	30.692236
395	40	4	0.060000	25.098236	23.936861	30.544508
396	40	4	0.060000	24.965547	24.364443	32.297985
397	40	4	0.060000	25.479250	25.612579	31.098611
398	40	4	0.060000	21.897777	26.602462	30.586214
399	40	4	0.060000	23.476619	26.782653	29.727642
400	40	4	0.060000	23.343900	27.210333	31.481523
401	41	1	-0.180000	18.455446	32.681207	30.686123
402	41	2	0.470000	17.051720	33.199153	30.613593
403	41	3	-0.470000	16.688804	33.817841	29.624993
404	41	1	-0.180000	16.092838	32.964585	31.741147
405	41	4	0.060000	19.169170	33.528739	30.617587
406	41	4	0.060000	18.638140	31.981229	29.844065
407	41	4	0.060000	18.629297	32.143585	31.642340
408	41	4	0.060000	15.103352	33.416794	31.515752
409	41	4	0.060000	16.491879	33.421358	32.670884
410	41	4	0.060000	15.960727	31.873492	31.897183
411	42	1	-0.180000	17.787883	3.654935	13.439573
412	42	2	0.470000	19.101348	3.333726	12.794896
413	42	3	-0.470000	20.106908	3.256036	13.483828
414	42	1	-0.180000	19.190278	3.107811	11.316076
415	42	4	0.060000	17.851279	4.642872	13.941936
416	42	4	0.060000	17.542804	2.877404	14.193091
417	42	4	0.060000	16.974760	3.689487	12.683761
418	42	4	0.060000	20.235807	2.882353	11.015385
419	42	4	0.060000	18.851613	4.018329	10.778912
420	42	4	0.060000	18.543067	2.252454	11.030125
421	43	1	-0.180000	19.364331	23.263536	32.568895
422	43	2	0.470000	18.053517	23.987659	32.606112
423	43	3	-0.470000	17.483882	24.255370	31.559374
424	43	1	-0.180000	17.438149	24.384606	33.913633
425	43	4	0.060000	20.105497	23.863908	32.000886
426	43	4	0.060000	19.232589	22.280163	32.070870
427	43	4	0.060000	19.752035	23.095234	33.596015
428	43	4	0.060000	16.472695	24.909505	33.750052
429	43	4	0.060000	18.126853	25.063326	34.458895
430	43	4	0.060000	17.253744	23.479216	34.528895
431	44	1	-0.180000	8.564114	29.804373	9.365772
432	44	2	0.470000	7.248099	30.134022	10.000917
433	44	3	-0.470000	6.290638	29.397919	9.818607
434	44	1	-0.180000	7.098248	31.356046	10.855350
435	44	4	0.060000	8.448258	29.775919	8.262062
436	44	4	0.060000	8.911391	28.811941	9.721983
437	44	4	0.060000	9.329930	30.565725	9.625548
438	44	4	0.060000	6.059682	31.440833	11.240798
439	44	4	0.060000	7.332862	32.260713	10.256337
440	44	4	0.060000	7.796101	31.296514	11.716594
441	45	1	-0.180000	4.288795	7.194334	6.322188
442	45	2	0.470000	4.650064	6.133111	7.315800
443	45	3	-0.470000	5.330265	5.182767	6.960855
444	45	1	-0.180000	4.184651	6.228622	8.737110
445	45	4	0.060000	3.712165	6.742697	5.487963
446	45	4	0.060000	5.213691	7.656706	5.918222
447	45	4	0.060000	3.670934	7.985981	6.796695
448	45	4	0.060000	4.544750	5.359102	9.327569
449	45	4	0.060000	3.075070	6.245994	8.765590
450	45	4	0.060000	4.576942	7.160213	9.195948
451	46	1	-0.180000	15.324474	4.394135	36.040040
452	46	2	0.470000	13.873422	4.687529	36.268824
453	46	3	-0.470000	13.520620	5.833236	36.502702
454	46	1	-0.180000	12.855085	3.589470	36.213038
455	46	4	0.060000	15.908796	4.681240	36.939233
456	46	4	0.060000	15.688844	4.975251	35.167145
457	46	4	0.060000	15.482357	3.312890	35.841052
458	46	4	0.060000	11.836255	3.988522	36.405704
459	46	4	0.060000	13.090699	2.823277	36.980969
460	46	4	0.060000	12.870696	3.117356	35.208474
461	47	1	-0.180000	11.605099	15.788526	31.637718
462	47	2	0.470000	11.335400	15.809607	30.164358
463	47	3	-0.470000	10.349229	16.392961	29.741299
464	47	1	-0.180000	12.263452	15.122611	29.209052
465	47	4	0.060000	10.755680	15.305933	32.164976
466	47	4	0.060000	11.722528	16.827850	32.009772
467	47	4	0.060000	12.533576	15.221486	31.861350
468	47	4	0.060000	11.908668	15.241313	28.162908
469	47	4	0.060000	12.312035	14.040092	29.450045
470	47	4	0.060000	13.279105	15.562360	29.294805
471	48	1	-0.180000	37.011644	22.869368	21.771031
472	48	2	0.470000	35.755890	23.459329	22.335833
473	48	3	-0.470000	34.783145	22.743324	22.517264
474	48	1	-0.180000	35.684663	24.916464	22.678674
475	48	4	0.060000	36.802208	22.435288	20.770971
476	48	4	0.060000	37.383564	22.069753	22.445344
477	48	4	0.060000	37.800141	23.644584	21.666497
478	48	4	0.060000	34.683030	25.176263	23.083165
479	48	4	0.060000	35.871480	25.523179	21.768025
480	48	4	0.060000	36.452969	25.157559	23.442783
481	49	1	-0.180000	2.983460	22.316973	24.691302
482	49	2	0.470000	2.812801	21.661716	23.355081
483	49	3	-0.470000	2.367006	22.308770	22.419987
484	49	1	-0.180000	3.183734	20.223176	23.157941
485	49	4	0.060000	2.000148	22.681124	25.055856
486	49	4	0.060000	3.679439	23.176840	24.598294
487	49	4	0.060000	3.396903	21.600700	25.432674
488	49	4	0.060000	2.991261	19.907993	22.110090
489	49	4	0.060000	2.582108	19.586341	23.839682
490	49	4	0.060000	4.261785	20.082171	23.382014
491	50	1	-0.180000	21.303108	12.848136	18.975260
492	50	2	0.470000	20.201510	12.748519	19.985474
493	50	3	-0.470000	20.070985	13.628493	20.822386
494	50	1	-0.180000	19.261761	11.581192	19.976783
495	50	4	0.060000	22.283586	12.877723	19.495064
496	50	4	0.060000	21.178333	13.775812	18.378388
497	50	4	0.060000	21.288858	11.975863	18.287837
498	50	4	0.060000	18.512967	11.673719	20.792335
499	50	4	0.060000	19.833990	10.640961	20.121019
500	50	4	0.060000	18.728483	11.539257	19.004086
501	51	1	-0.180000	36.899535	2.645741	21.754964
502	51	2	0.470000	36.506638	4.075410	21.541298
503	51	3	-0.470000	36.794739	4.911168	22.384103
504	51	1	-0.180000	35.765299	4.486269	20.305391
505	51	4	0.060000	36.430911	2.265992	22.686946
506	51	4	0.060000	38.003544	2.572421	21.845494
507	51	4	0.060000	36.567600	2.013411	20.904321
508	51	4	0.060000	35.558366	5.577800	20.316146
509	51	4	0.060000	34.800799	3.939477	20.250222
510	51	4	0.060000	36.373794	4.245977	19.408576
511	52	1	-0.180000	6.703842	18.200753	28.088754
512	52	2	0.470000	7.949531	18.877747	28.572397
513	52	3	-0.470000	7.896550	19.609230	29.549095
514	52	1	-0.180000	9.255642	18.664834	27.869120
515	52	4	0.060000	5.946340	18.965161	27.816208
516	52	4	0.060000	6.295810	17.553049	28.892742
517	52	4	0.060000	6.915858	17.573429	27.197054
518	52	4	0.060000	10.066339	19.242035	28.363072
519	52	4	0.060000	9.169695	18.999159	26.814073
520	52	4	0.060000	9.519245	17.586722	27.890855
521	53	1	-0.180000	24.562088	34.383736	13.632029
522	53	2	0.470000	23.397290	33.565953	13.164643
523	53	3	-0.470000	22.614754	34.040395	12.355720
524	53	1	-0.180000	23.185881	32.174891	13.680497
525	53	4	0.060000	24.194514	35.310861	14.119613
526	53	4	0.060000	25.198532	34.655568	12.764012
527	53	4	0.060000	25.176514	33.815141	14.361957
528	53	4	0.060000	22.278315	31.721678	13.227396
529	53	4	0.060000	23.060546	32.201318	14.783165
530	53	4	0.060000	24.064795	31.545875	13.427252
531	54	1	-0.180000	26.178656	12.630914	11.194756
532	54	2	0.470000	25.419585	12.347871	12.454785
533	54	3	-0.470000	25.703598	11.363937	13.120385
534	54	1	-0.180000	24.318175	13.259906	12.903051
535	54	4	0.060000	26.060395	11.781439	10.489904
536	54	4	0.060000	27.255515	12.762531	11.430256
537	54	4	0.060000	25.803603	13.555488	10.706790
538	54	4	0.060000	23.869402	12.896738	13.852309
539	54	4	0.060000	23.527230	13.299490	12.125153
540	54	4	0.060000	24.722625	14.280808	13.065722
541	55	1	-0.180000	15.373566	12.834980	12.212836
542	55	2	0.470000	16.313768	13.901624	11.741387
543	55	3	-0.470000	15.898493	15.037517	11.570781
544	55	1	-0.180000	17.755055	13.586317	11.478471
545	55	4	0.060000	14.547639	12.716289	11.480602
546	55	4	0.060000	14.949510	13.121164	13.198069
547	55	4	0.060000	15.900123	11.862806	12.318807
548	55	4	0.060000	18.299506	14.492748	11.137392
549	55	4	0.060000	17.828521	12.807066	10.691289
550	55	4	0.060000	18.230484	13.212035	12.409151
551	56	1	-0.180000	5.527309	18.463436	34.612006
552	56	2	0.470000	6.555536	19.078292	33.712743
553	56	3	-0.470000	7.737960	19.000036	34.008652
554	56	1	-0.180000	6.145457	19.786212	32.457139
555	56	4	0.060000	5.587767	18.927346	35.618754
556	56	4	0.060000	5.714586	17.372823	34.700881
557	56	4	0.060000	4.504746	18.618976	34.207298
558	56	4	0.060000	7.034953	20.176999	31.918196
559	56	4	0.060000	5.477715	20.636293	32.709659
560	56	4	0.060000	5.604563	19.081412	31.791575
561	57	1	-0.180000	10.616075	33.761175	18.223201
562	57	2	0.470000	9.288533	33.412067	17.623428
563	57	3	-0.470000	8.341837	34.168731	17.775212
564	57	1	-0.180000	9.114127	32.145686	16.841304
565	57	4	0.060000	10.514428	33.853224	19.324838
566	57	4	0.060000	10.970064	34.727692	17.807334
567	57	4	0.060000	11.369895	32.977237	17.997790
568	57	4	0.060000	8.069905	32.051780	16.473661
569	57	4	0.060000	9.345990	31.273490	17.487676
570	57	4	0.060000	9.801731	32.148159	15.969823
571	58	1	-0.180000	8.834049	28.352731	15.807202
572	58	2	0.470000	8.767441	28.330370	14.310861
573	58	3	-0.470000	8.055354	27.510160	13.752290
574	58	1	-0.180000	9.565297	29.303561	13.497118
575	58	4	0.060000	9.202964	27.373641	16.178273
576	58	4	0.060000	7.822072	28.542537	16.222275
577	58	4	0.060000	9.520963	29.150938	16.160230
578	58	4	0.060000	9.393487	29.141456	12.411493
579	58	4	0.060000	10.646255	29.171201	13.712278
580	58	4	0.060000	9.265046	30.340366	13.756290
581	59	1	-0.180000	33.651026	33.671245	31.133474
582	59	2	0.470000	33.104054	32.889699	29.978493
583	59	3	-0.470000	33.849077	32.168384	29.333158
584	59	1	-0.180000	31.654556	32.986044	29.610352
585	59	4	0.060000	34.449823	34.354304	30.776035
586	59	4	0.060000	34.076137	32.974953	31.886379
587	59	4	0.060000	32.853002	34.275189	31.615162
588	59	4	0.060000	31.428276	32.341829	28.733904
589	59	4	0.060000	31.403556	34.037156	29.356488
590	59	4	0.060000	31.029784	32.657487	30.467087
591	60	1	-0.180000	36.246287	10.882256	21.679155
592	60	2	0.470000	35.941622	12.318109	21.380028
593	60	3	-0.470000	34.958182	12.841632	21.880611
594	60	1	-0.180000	36.831500	13.114092	20.474278
595	60	4	0.060000	35.399750	10.245049	21.347868
596	60	4	0.060000	36.394780	10.752795	22.771674
597	60	4	0.060000	37.167597	10.555676	21.151757
598	60	4	0.060000	36.454183	14.153591	20.367268
599	60	4	0.060000	36.862808	12.639472	19.471262
600	60	4	0.060000	37.858067	13.147335	20.895396
601	61	1	-0.180000	35.158803	11.474981	16.024032
602	61	2	0.470000	36.047296	10.472093	16.693936
603	61	3	-0.470000	35.583729	9.399049	17.048192
604	61	1	-0.180000	37.495647	10.774677	16.931793
605	61	4	0.060000	34.326466	11.749139	16.705546
606	61	4	0.060000	34.739722	11.038362	15.093364
607	61	4	0.060000	35.725874	12.393973	15.764227
608	61	4	0.060000	37.997372	9.921519	17.436542
609	61	4	0.060000	37.587635	11.675227	17.574312