
variable        infile index acetone_octanol_50p.data   # The name of the (edited) data file

#>>>>>> Simulation settings <<<<<<<

units		 real		#angstroms = length -
atom_style	 full		#How the atoms are defined in the input data file
boundary        p p p           #periodic box in x, y and z
pair_style	 lj/cut/coul/long 12.0    #'lj/cut/coul/long
pair_modify     tail yes            #Tail corrections
pair_modify     mix arithmetic      #Lorentz-Berthelot pair interactions between dissimilar atom

special_bonds   lj/coul 0.0 0.0 0.5
kspace_style    ewald 0.0001
bond_style      harmonic
angle_style     harmonic
dihedral_style  opls


# inputs settings
variable   simulationTemp  index 310     #Simulation temperature
variable   simulationPress equal 0.987	 #Simulation pressure

# Output files frequencies
variable        dumpfreq   index 1000          #Output frequency of dump information to dump
variable        thermofreq index 1000          #Output frequency of property information to log
variable        printfreq  index 1000          #Output frequency of information to be printed
variable        restartfreq index 1000000      #Output frequency of restart files


# Simulation run times (equilibration and production)
variable        NVT_equib  index 100000       # Equilibration run length (in timesteps)
variable        NVT_prod   index 30000       # Simulation run length  (in timesteps)


# Output
variable    step        equal step
variable    density     equal density
variable    temp        equal temp
variable    press       equal press
variable    ke          equal ke
variable    pe          equal pe
variable    etotal      equal etotal
variable    enthalpy    equal enthalpy


# >>>>>>>>>>> Reading data, Neighbor list settings, energy minimization, assigning initial velocities & specifying thermodynamic property output style to log files <<<<<<<<<

read_data	${infile}
read_data	acetone_octanol_50p.data
  orthogonal box = (0 0 0) to (40 40 40)
  3 by 4 by 4 MPI processor grid
  reading atoms ...
  3700 atoms
  scanning bonds ...
  1 = max bonds/atom
  scanning angles ...
  6 = max angles/atom
  scanning dihedrals ...
  12 = max dihedrals/atom
  reading bonds ...
  3500 bonds
  reading angles ...
  6400 angles
  reading dihedrals ...
  7800 dihedrals
  4 = max # of 1-2 neighbors
  6 = max # of 1-3 neighbors
  12 = max # of 1-4 neighbors
  16 = max # of special neighbors
  special bonds CPU = 0.0239909 secs
  read_data CPU = 0.0719247 secs
neighbor        1.0 bin
neigh_modify    delay 0 every 1 check yes page 1000000 one 20000
timestep        1.0

minimize        1e-4 1e-6 10000 100000        #Energy minimize before creating velocities
Ewald initialization ...
  using 12-bit tables for long-range coulomb (src/kspace.cpp:332)
  G vector (1/distance) = 0.165411
  estimated absolute RMS force accuracy = 0.0336699
  estimated relative force accuracy = 0.000101396
  KSpace vectors: actual max1d max3d = 257 5 665
                  kxmax kymax kzmax  = 5 5 5
Neighbor list info ...
  update every 1 steps, delay 0 steps, check yes
  max neighbors/atom: 20000, page size: 1000000
  master list distance cutoff = 13
  ghost atom cutoff = 13
  binsize = 6.5, bins = 7 7 7
  1 neighbor lists, perpetual/occasional/extra = 1 0 0
  (1) pair lj/cut/coul/long, perpetual
      attributes: half, newton on
      pair build: half/bin/newton
      stencil: half/bin/3d/newton
      bin: standard
Per MPI rank memory allocation (min/avg/max) = 25.74 | 25.85 | 26.28 Mbytes
Step Temp E_pair E_mol TotEng Press 
       0            0   -202.99859    1115.7168    912.71824   -2897.9061 
     498            0   -2762.9907    463.24767    -2299.743   -350.75386 
Loop time of 4.21087 on 48 procs for 498 steps with 3700 atoms

45.5% CPU use with 48 MPI tasks x 1 OpenMP threads

Minimization stats:
  Stopping criterion = energy tolerance
  Energy initial, next-to-last, final = 
         912.718242192     -2299.56097317      -2299.7430416
  Force two-norm initial, final = 1618.4 27.6345
  Force max component initial, final = 252.963 7.05596
  Final line search alpha, max atom move = 0.00665454 0.0469542
  Iterations, force evaluations = 498 989

MPI task timing breakdown:
Section |  min time  |  avg time  |  max time  |%varavg| %total
---------------------------------------------------------------
Pair    | 0.031486   | 0.7791     | 1.975      |  57.1 | 18.50
Bond    | 0.0024341  | 0.052286   | 0.094329   |  10.6 |  1.24
Kspace  | 0.63853    | 1.81       | 2.5106     |  35.1 | 42.98
Neigh   | 0.077575   | 0.081014   | 0.083273   |   0.6 |  1.92
Comm    | 0.73063    | 0.84267    | 0.98884    |   6.8 | 20.01
Output  | 0          | 0          | 0          |   0.0 |  0.00
Modify  | 0          | 0          | 0          |   0.0 |  0.00
Other   |            | 0.6458     |            |       | 15.34

Nlocal:    77.0833 ave 143 max 10 min
Histogram: 5 3 5 4 7 7 3 6 3 5
Nghost:    2842.85 ave 2955 max 2711 min
Histogram: 1 3 4 8 6 6 5 6 4 5
Neighs:    24679.6 ave 65429 max 1695 min
Histogram: 7 11 6 7 3 5 1 3 2 3

Total # of neighbors = 1184621
Ave neighs/atom = 320.168
Ave special neighs/atom = 9.56757
Neighbor list builds = 39
Dangerous builds = 0
#velocity	all create ${simulationTemp} 886874 mom yes rot yes dist gaussian

velocity        all create  ${simulationTemp} 317879265 units box
velocity        all create  310 317879265 units box
velocity        all zero linear units box

# The 'velocity' command line above assigns initial velocities to the atoms in our data file, see the LAMMPS 'velocity' command
# The number '886874' is the seed number which helps LAMMPS to consistently assign the same randomized velocities for the same simulation with the same seed number
# Changing that seed number for your simulation of a given system is one easy way to run an 'independent' simulation of the same system as taught in class
# You will need to do this for your homework

thermo_style    custom step vol temp press ke pe etotal enthalpy evdwl ecoul epair ebond eangle edihed eimp emol elong etail lx ly lz xy xz yz density
thermo          ${thermofreq}
thermo          1000

fix npt_density all npt temp ${simulationTemp} ${simulationTemp} 100 iso ${simulationPress} ${simulationPress} 1000
fix npt_density all npt temp 310 ${simulationTemp} 100 iso ${simulationPress} ${simulationPress} 1000
fix npt_density all npt temp 310 310 100 iso ${simulationPress} ${simulationPress} 1000
fix npt_density all npt temp 310 310 100 iso 0.987 ${simulationPress} 1000
fix npt_density all npt temp 310 310 100 iso 0.987 0.987 1000

run 50000
Ewald initialization ...
  using 12-bit tables for long-range coulomb (src/kspace.cpp:332)
  G vector (1/distance) = 0.165411
  estimated absolute RMS force accuracy = 0.0336699
  estimated relative force accuracy = 0.000101396
  KSpace vectors: actual max1d max3d = 257 5 665
                  kxmax kymax kzmax  = 5 5 5
Per MPI rank memory allocation (min/avg/max) = 24.64 | 24.78 | 25.15 Mbytes
Step Volume Temp Press KinEng PotEng TotEng Enthalpy E_vdwl E_coul E_pair E_bond E_angle E_dihed E_impro E_mol E_long E_tail Lx Ly Lz Xy Xz Yz Density 
     498        64000          310    2090.6139    3418.0651    -2299.743     1118.322    3069.6474   -1421.9979    2892.2515   -2762.9907     20.09727    127.76841    315.38199            0    463.24767   -4233.2443   -34.010477           40           40           40            0            0            0   0.48858288 
    1000    66643.012    286.09063    1053.4613    3154.4399     288.3982    3442.8381    4466.7182    -1065.729    2995.9131   -2298.8172    803.28712    1281.7592    502.16907            0    2587.2154   -4229.0013   -32.661647    40.543217    40.543217    40.543217            0            0            0   0.46920605 
    2000    63222.721     318.6428    1099.5291    3513.3607    1256.2804    4769.6411    5783.4493   -912.35541    3009.4214    -2131.156    1155.2207    1661.4263    570.78943            0    3387.4364    -4228.222   -34.428612    39.837407    39.837407    39.837407            0            0            0   0.49458966 
    3000    57767.017     311.2396     45.34958    3431.7329     1147.522    4579.2548    4617.4606   -974.55235    2982.5417   -2220.7792    1155.1166    1642.8585    570.32603            0    3368.3011   -4228.7685   -37.680162    38.656866    38.656866    38.656866            0            0            0   0.54130031 
    4000    53816.313    311.61031     115.1266    3435.8204     1000.867    4436.6875    4527.0452   -1032.4335    2997.2079   -2266.2963    1089.7746    1603.9097    573.47903            0    3267.1633   -4231.0706   -40.446296    37.754725    37.754725    37.754725            0            0            0   0.58103766 
    5000    50995.295    313.31908   -369.28558    3454.6613    1050.0357     4504.697    4230.0541   -1054.8805    2936.7761   -2349.3051    1157.6601    1661.9538    579.72698            0    3399.3409   -4231.2007   -42.683752    37.083157    37.083157    37.083157            0            0            0   0.61318018 
    6000    47946.748    306.48686   -912.38012    3379.3291    947.38924    4326.7183    3688.7328   -1128.4519    2979.1751   -2382.1514    1088.1754    1679.7337    561.63154            0    3329.5407   -4232.8746   -45.397668    36.328967    36.328967    36.328967            0            0            0   0.65216736 
    7000    46375.754    310.55951   -48.139961    3424.2342    960.03116    4384.2654    4351.7063   -1134.2535     2957.825   -2411.5578    1159.2722    1648.0802    564.23658            0     3371.589   -4235.1293   -46.935529    35.927775    35.927775    35.927775            0            0            0   0.67425975 
    8000    44770.365    309.35184   -104.72193    3410.9184    822.44181    4233.3602    4164.9842   -1190.8632    2984.1873   -2437.7476    1105.6367     1614.419    540.13375            0    3260.1894   -4231.0717   -48.618557    35.508327    35.508327    35.508327            0            0            0   0.69843755 
    9000    43726.501    312.76208   -931.70648    3448.5199    736.00963    4184.5295    3590.3745    -1204.869     2964.189   -2474.9409    1063.6694    1591.2692    556.01198            0    3210.9505   -4234.2609   -49.779206    35.230184    35.230184    35.230184            0            0            0   0.71511105 
   10000    42161.166    302.61877   -417.53702    3336.6795    741.29168    4077.9712    3821.2371   -1257.9866    2951.1961    -2539.662     1102.937    1639.8374    538.17932            0    3280.9537   -4232.8715    -51.62738    34.804671    34.804671    34.804671            0            0            0   0.74166127 
   11000    41722.148    316.12896    556.51632    3485.6431    723.53589     4209.179    4547.8051   -1238.7332    2939.3046   -2534.6023    1078.8453    1636.7132    542.57965            0    3258.1382   -4235.1738   -52.170625    34.683444    34.683444    34.683444            0            0            0   0.74946535 
   12000    42159.348    306.14019    357.75239    3375.5067    628.94803    4004.4547    4224.4191   -1246.5116    2928.5578   -2553.1738    1045.9047    1599.1992    537.01786            0    3182.1218     -4235.22   -51.629606    34.804171    34.804171    34.804171            0            0            0   0.74169325 
   13000    41141.631    314.54802    2310.4352    3468.2116    674.68064    4142.8922     5529.173   -1276.1303    2929.8697   -2580.8232    1098.2766    1636.9666    520.26063            0    3255.5039   -4234.5625   -52.906764    34.521832    34.521832    34.521832            0            0            0   0.76004046 
   14000     41304.31    313.59032    275.27441     3457.652    624.70964    4082.3616    4248.1817   -1289.9167    2930.0882   -2595.8593     1088.927    1614.6053    517.03671            0     3220.569   -4236.0308   -52.698388    34.567273    34.567273    34.567273            0            0            0   0.75704701 
   15000    40876.992    314.52468   -1091.6268    3467.9542    668.93342    4136.8877    3486.1154   -1310.9367     2924.122   -2622.6597    1098.5522    1687.0059     506.0351            0    3291.5932    -4235.845   -53.249284    34.447653    34.447653    34.447653            0            0            0   0.76496099 
   16000    40551.664    298.96857    -481.6705    3296.4323    634.86248    3931.2948    3646.4328    -1289.514    2921.1927   -2601.8857    1113.5117    1613.2834    509.95308            0    3236.7482   -4233.5645   -53.676478    34.356024    34.356024    34.356024            0            0            0   0.77109792 
   17000     40532.43     306.0551   -536.40242    3374.5685    623.03409    3997.6026    3680.5223   -1339.2329    2900.9627   -2672.2582    1125.9911    1664.2522    505.04903            0    3295.2923   -4233.9881   -53.701951    34.350591    34.350591    34.350591            0            0            0   0.77146385 
   18000    40786.385    314.03745   -21.129617     3462.582    580.54873    4043.1308    4030.5623   -1329.3095     2885.511   -2680.2321    1123.6852    1647.1429    489.95273            0    3260.7808   -4236.4336   -53.367577    34.422183    34.422183    34.422183            0            0            0   0.76666035 
   19000    39824.698    312.34683    512.41401    3443.9412    586.43951    4030.3808     4327.992   -1358.4589    2914.4718   -2679.4725    1134.4334    1636.1896    495.28901            0     3265.912   -4235.4853   -54.656297    34.149486    34.149486    34.149486            0            0            0   0.78517366 
   20000    39732.183    306.40953   -875.87835    3378.4765    555.91353    3934.3901    3426.8596   -1367.3236    2916.3547    -2686.761    1100.7067    1634.8396    507.12823            0    3242.6745   -4235.7921   -54.783562    34.123021    34.123021    34.123021            0            0            0   0.78700191 
   21000    39763.034    304.73285   -1527.0593    3359.9894    470.98272    3830.9721    2945.4257   -1359.2283    2897.2878   -2698.9476    1047.3973    1645.1824     477.3506            0    3169.9303   -4237.0071   -54.741058    34.131851    34.131851    34.131851            0            0            0   0.78639131 
   22000    40200.257    313.44345   -173.38448    3456.0326    605.36684    4061.3994    3959.7476   -1350.1654    2892.5272   -2694.8434    1105.9889    1708.7151    485.50625            0    3300.2102   -4237.2052   -54.145688    34.256496    34.256496    34.256496            0            0            0   0.77783842 
   23000    39821.197    314.14274   -805.65045     3463.743    522.50902     3986.252    3518.3695   -1349.7173    2873.0744   -2711.6718     1078.233    1685.9695    469.97825            0    3234.1808    -4235.029   -54.661103    34.148485    34.148485    34.148485            0            0            0    0.7852427 
   24000    39551.443    310.75242    1309.0268    3426.3613     595.5088    4021.8701    4776.9393   -1386.7005    2916.7459   -2703.5982    1091.9771    1717.9029     489.2269            0     3299.107   -4233.6436   -55.033909    34.071201    34.071201    34.071201            0            0            0   0.79059831 
   25000    39690.061    309.81709   -902.31851    3416.0483    551.06316    3967.1115    3444.8145   -1373.6054    2917.5679   -2691.6171    1110.7148    1674.8884    457.07705            0    3242.6802   -4235.5796   -54.841704    34.110958    34.110958    34.110958            0            0            0   0.78783715 
   26000    39247.507    310.41195    414.40615    3422.6072      456.766    3879.3732    4116.5729   -1378.8585    2863.0576   -2749.7675    1067.4154    1683.3734    455.74472            0    3206.5335   -4233.9666   -55.460097    33.983702    33.983702    33.983702            0            0            0   0.79672077 
   27000    39386.197     304.0258      127.744    3352.1935    392.14654      3744.34    3817.7171   -1365.7317     2857.503   -2743.6416    1052.6271    1616.8599    466.30116            0    3135.7881   -4235.4129   -55.264807    34.023685    34.023685    34.023685            0            0            0    0.7939153 
   28000    39489.249    313.07524    1151.4041    3451.9728    498.91811    3950.8909    4613.9962   -1349.0681    2894.4197   -2689.6611    1069.5618    1642.6075    476.40982            0    3188.5792   -4235.0127   -55.120586    34.053333    34.053333    34.053333            0            0            0   0.79184348 
   29000    39969.904    311.87937    110.71913     3438.787    501.73913    3940.5262    4005.0666   -1364.1101    2893.5443   -2706.2907    1092.7884    1656.4975    458.74395            0    3208.0299   -4235.7249   -54.457737     34.19094     34.19094     34.19094            0            0            0   0.78232122 
   30000    39549.251    306.82129    215.63031    3383.0165    497.32167    3880.3382    4004.7106   -1389.8039    2886.7164   -2739.8706    1145.4743    1638.9559    452.76213            0    3237.1923   -4236.7832    -55.03696    34.070572    34.070572    34.070572            0            0            0   0.79064214 
   31000    39889.686    311.95143     877.6264    3439.5816    568.33768    4007.9192    4518.4785   -1361.4115    2877.1389   -2719.8248    1143.0489      1670.66    474.45349            0    3288.1625   -4235.5522   -54.567251    34.168051    34.168051    34.168051            0            0            0   0.78389446 
   32000    39174.676    321.08843    51.058846    3540.3262    474.32238    4014.6486    4043.8197    -1386.605     2861.977   -2758.2272    1158.9196    1603.3684    470.26161            0    3232.5496   -4233.5992   -55.563204    33.962668    33.962668    33.962668            0            0            0   0.79820198 
   33000    39935.044    312.67249     147.8825    3447.5319    507.90826    3955.4402    4041.5687   -1361.4571    2859.1605   -2739.5173    1138.3525    1643.0585    466.01454            0    3247.4255   -4237.2207   -54.505275    34.180997    34.180997    34.180997            0            0            0   0.78300413 
   34000    39934.518    308.33706   -532.42138    3399.7295    560.79796    3960.5275    3650.4431   -1347.4732    2861.5783   -2722.8459    1151.8538    1662.9876    468.80242            0    3283.6438    -4236.951   -54.505993    34.180846    34.180846    34.180846            0            0            0   0.78301445 
   35000    39059.476    312.25221    1398.1749    3442.8979     486.5129    3929.4108    4725.8705   -1372.8879    2887.5788   -2719.6211    1132.9118    1612.9359    460.28634            0     3206.134    -4234.312    -55.72708    33.929344    33.929344    33.929344            0            0            0   0.80055617 
   36000    39972.059      306.808   -536.38044    3382.8701     532.5624    3915.4325    3602.7487    -1336.351    2852.8287    -2716.616    1149.3774    1653.5535    446.24757            0    3249.1784   -4233.0937   -54.454801    34.191554    34.191554    34.191554            0            0            0   0.78227905 
   37000    39648.352    313.48944    1497.6772    3456.5397    547.89227     4004.432    4870.4347   -1351.2271    2841.5025   -2744.5762    1126.7819    1699.2886    466.39793            0    3292.4684   -4234.8515   -54.899395    34.099005    34.099005    34.099005            0            0            0   0.78866593 
   38000    39153.622    312.54839    103.88141    3446.1637    421.86022    3868.0239    3927.3418   -1374.8806    2846.8991   -2764.1772    1107.2102    1620.8409    457.98633            0    3186.0374   -4236.1956   -55.593082    33.956583    33.956583    33.956583            0            0            0   0.79863119 
   39000    39723.299    315.66704   -92.444908      3480.55    566.31389    4046.8639    3993.3084   -1383.1002    2888.7755   -2727.6759    1141.7577    1692.5006    459.73142            0    3293.9897   -4233.3511   -54.795815    34.120478    34.120478    34.120478            0            0            0   0.78717793 
   40000    39295.978     311.3213    769.03649    3432.6338    456.95298    3889.5867     4330.315   -1383.9615    2872.4518   -2747.9745    1168.9271    1587.8136    448.18669            0    3204.9274   -4236.4647   -55.391687    33.997687    33.997687    33.997687            0            0            0   0.79573803 
   41000    39673.239    310.65217   -1201.5502    3425.2559      507.906    3933.1619    3237.9528   -1403.8268    2896.9838   -2742.4834    1110.2402    1675.7441      464.405            0    3250.3894   -4235.6403   -54.864956    34.106139    34.106139    34.106139            0            0            0   0.78817119 
   42000    39522.122    316.13939     655.4335    3485.7581     389.6407    3875.3988    4253.1839   -1368.7164     2870.994   -2735.8967    1098.7288    1597.7527    429.05588            0    3125.5374   -4238.1742   -55.074738     34.06278     34.06278     34.06278            0            0            0   0.79118485 
   43000    39447.197      305.519    156.36507    3368.6575    490.84815    3859.5056     3949.462   -1369.2911    2881.3537   -2724.1939    1117.0616    1616.6224    481.35806            0    3215.0421   -4236.2565   -55.179347    34.041241    34.041241    34.041241            0            0            0   0.79268761 
   44000    40348.197    303.17104    663.89178    3342.7688     519.6036    3862.3724     4253.031   -1330.4375    2898.4707   -2664.3819    1111.5178    1631.8617    440.60598            0    3183.9855   -4232.4151   -53.947157    34.298467    34.298467    34.298467            0            0            0    0.7749864 
   45000    39310.217    304.92364   -757.93252     3362.093    564.15122    3926.2442    3491.7221   -1391.6136    2871.8463   -2755.5999    1188.5467    1661.7419    469.46248            0    3319.7511   -4235.8325   -55.371623    34.001793    34.001793    34.001793            0            0            0    0.7954498 
   46000    39539.099    315.03635    1408.6071     3473.596    529.15587    4002.7519    4815.0071   -1364.2124    2858.2889   -2741.8408    1112.7011    1677.4826    480.81297            0    3270.9967   -4235.9173   -55.051091    34.067656    34.067656    34.067656            0            0            0   0.79084514 
   47000    39378.357     309.0449   -434.85149    3407.5341    539.65559    3947.1897    3697.4575   -1386.4028    2894.6043   -2727.4492    1125.4495    1673.1052    468.55005            0    3267.1048   -4235.6507   -55.275809    34.021427    34.021427    34.021427            0            0            0   0.79407336 
   48000    39563.411    303.94143    573.27425    3351.2632    486.06965    3837.3328    4168.1073   -1356.2871    2880.9306   -2712.4483    1117.8805    1619.1505    461.48696            0    3198.5179   -4237.0918   -55.017261    34.074637    34.074637    34.074637            0            0            0   0.79035915 
   49000    39059.192    311.22007    585.27749    3431.5176    504.93832    3936.4559    4269.8524   -1368.4638    2873.2398   -2732.6806     1136.784    1627.0572    473.77771            0    3237.6189   -4237.4565   -55.727485    33.929262    33.929262    33.929262            0            0            0   0.80056199 
   50000    38757.481    312.36502   -1109.5043    3444.1418    390.43309    3834.5749    3207.4407   -1409.5494     2866.829   -2778.1861    1108.1629    1600.0645    460.39173            0    3168.6192   -4235.4657     -56.1613    33.841675    33.841675    33.841675            0            0            0   0.80679402 
   50498    39345.996    307.78721    68.668326    3393.6668    517.12773    3910.7946    3950.1979   -1376.5932    2883.8578   -2728.1877    1122.1624    1660.4201     462.7329            0    3245.3154   -4235.4523   -55.321271    34.012105    34.012105    34.012105            0            0            0   0.79472645 
Loop time of 162.073 on 48 procs for 50000 steps with 3700 atoms

Performance: 26.655 ns/day, 0.900 hours/ns, 308.503 timesteps/s
52.8% CPU use with 48 MPI tasks x 1 OpenMP threads

MPI task timing breakdown:
Section |  min time  |  avg time  |  max time  |%varavg| %total
---------------------------------------------------------------
Pair    | 31.05      | 41.155     | 47.967     |  58.4 | 25.39
Bond    | 1.6078     | 2.8227     | 3.6711     |  22.9 |  1.74
Kspace  | 21.05      | 30.914     | 41.013     |  77.2 | 19.07
Neigh   | 9.1679     | 9.9581     | 10.683     |  15.0 |  6.14
Comm    | 40.324     | 46.727     | 55.222     |  48.3 | 28.83
Output  | 0.065052   | 0.066083   | 0.076211   |   0.6 |  0.04
Modify  | 19.533     | 24.255     | 28.157     |  41.8 | 14.97
Other   |            | 6.175      |            |       |  3.81

Nlocal:    77.0833 ave 89 max 67 min
Histogram: 7 5 4 5 6 6 4 2 3 6
Nghost:    4104.81 ave 4132 max 4069 min
Histogram: 1 1 9 2 7 6 6 4 7 5
Neighs:    33308.8 ave 39287 max 26918 min
Histogram: 3 2 7 6 6 6 5 2 5 6

Total # of neighbors = 1598823
Ave neighs/atom = 432.114
Ave special neighs/atom = 9.56757
Neighbor list builds = 5529
Dangerous builds = 0

unfix npt_density

fix reshape_box all deform 1 x final 0.0 36.6857 y final 0.0 36.6857 z final 0.0 36.6857 units box

run 100000
Ewald initialization ...
  using 12-bit tables for long-range coulomb (src/kspace.cpp:332)
  G vector (1/distance) = 0.170441
  estimated absolute RMS force accuracy = 0.0383863
  estimated relative force accuracy = 0.000115599
  KSpace vectors: actual max1d max3d = 128 4 364
                  kxmax kymax kzmax  = 4 4 4
Per MPI rank memory allocation (min/avg/max) = 23.15 | 23.36 | 23.64 Mbytes
Step Volume Temp Press KinEng PotEng TotEng Enthalpy E_vdwl E_coul E_pair E_bond E_angle E_dihed E_impro E_mol E_long E_tail Lx Ly Lz Xy Xz Yz Density 
   50498    39345.996    307.78721    68.642734    3393.6668    516.78402    3910.4508    3949.8395   -1376.5932    3011.6307   -2728.5314    1122.1624    1660.4201     462.7329            0    3245.3154   -4363.5689   -55.321271    34.012105    34.012105    34.012105            0            0            0   0.79472645 
   51000    39392.594    307.78721   -771.40242    3393.6668    519.75785    3913.4247    3470.2535   -1379.1665    3012.2115    -2730.515    1127.1198    1660.4201     462.7329            0    3250.2728     -4363.56   -55.255832    34.025527    34.025527    34.025527            0            0            0   0.79378638 
   52000    39485.526    307.78721   -2443.6116    3393.6668    527.30532    3920.9721     2513.804   -1384.2048    3013.2851   -2734.4618    1138.6141    1660.4201     462.7329            0    3261.7672   -4363.5421   -55.125783    34.052263    34.052263    34.052263            0            0            0   0.79191814 
   53000    39578.605    307.78721   -4108.2562    3393.6668     537.2643    3930.9311    1559.5908   -1389.1111    3014.5071   -2738.1283    1152.2395    1660.4201     462.7329            0    3275.3926   -4363.5243   -54.996141    34.078999    34.078999    34.078999            0            0            0   0.79005575 
   54000    39671.829    307.78721   -5766.6725    3393.6668    549.41804    3943.0849    606.64418   -1393.8797    3015.6551    -2741.731     1167.996    1660.4201     462.7329            0    3291.1491   -4363.5064   -54.866906    34.105735    34.105735    34.105735            0            0            0    0.7881992 
   55000      39765.2    307.78721   -7418.6731    3393.6668    563.80317      3957.47   -344.87568   -1398.5135    3016.7687   -2745.2334    1185.8836    1660.4201     462.7329            0    3309.0366   -4363.4886   -54.738075    34.132471    34.132471    34.132471            0            0            0   0.78634846 
   56000    39858.718    307.78721   -9067.1243    3393.6668    579.93246    3973.5993   -1297.1066   -1403.0215    3017.3694   -2749.1228    1205.9022    1660.4201     462.7329            0    3329.0552   -4363.4707   -54.609648    34.159207    34.159207    34.159207            0            0            0   0.78450352 
   57000    39952.382    307.78721   -10706.689    3393.6668    598.72431    3992.3911   -2246.0168   -1407.3991    3018.3713   -2752.4806    1228.0519    1660.4201     462.7329            0    3351.2049   -4363.4529   -54.481622    34.185943    34.185943    34.185943            0            0            0   0.78266433 
   58000    40046.192    307.78721   -12341.346    3393.6668    619.50482    4013.1716   -3194.5771   -1411.6469     3019.101   -2755.9809    1252.3327    1660.4201     462.7329            0    3375.4857    -4363.435   -54.353995    34.212678    34.212678    34.212678            0            0            0    0.7808309 
   59000    40140.149    307.78721   -13968.131    3393.6668    642.78388    4036.4507   -4140.5337   -1415.7753    3020.0788   -2759.1137    1278.7445    1660.4201     462.7329            0    3401.8976   -4363.4172   -54.226767    34.239414    34.239414    34.239414            0            0            0   0.77900318 
   60000    40234.254    307.78721   -15587.169    3393.6668    668.54968    4062.2165   -5083.9494   -1419.7787    3021.2872   -2761.8908    1307.2875    1660.4201     462.7329            0    3430.4405   -4363.3993   -54.099936     34.26615     34.26615     34.26615            0            0            0   0.77718117 
   61000    40328.505    307.78721   -17197.122    3393.6668    697.03738    4090.7042   -6023.7811   -1423.6649    3022.9692   -2764.0771    1337.9614    1660.4201     462.7329            0    3461.1145   -4363.3815     -53.9735    34.292886    34.292886    34.292886            0            0            0   0.77536483 
   62000    40422.903    307.78721   -18804.249    3393.6668     727.1737    4120.8405   -6964.7641   -1427.4302     3024.048   -2766.7458    1370.7665    1660.4201     462.7329            0    3493.9195   -4363.3636   -53.847457    34.319622    34.319622    34.319622            0            0            0   0.77355415 
   63000    40517.448    307.78721   -20405.629    3393.6668    759.46712    4153.1339   -7904.6628   -1431.0771    3025.0343   -2769.3885    1405.7026    1660.4201     462.7329            0    3528.8557   -4363.3458   -53.721807    34.346358    34.346358    34.346358            0            0            0    0.7717491 
   64000    40612.141    307.78721   -22000.342    3393.6668    794.08032    4187.7471   -8842.7563   -1434.6125    3026.0978   -2771.8425    1442.7698    1660.4201     462.7329            0    3565.9229   -4363.3279   -53.596548    34.373094    34.373094    34.373094            0            0            0   0.76994967 
   65000    40706.981    307.78721   -23589.629    3393.6668    830.80562    4224.4724   -9779.9721   -1438.0291    3027.0236   -2774.3155    1481.9681    1660.4201     462.7329            0    3605.1211     -4363.31   -53.471677     34.39983     34.39983     34.39983            0            0            0   0.76815582 
   66000    40801.968    307.78721    -25173.06    3393.6668    869.72113     4263.388   -10715.964   -1441.3338    3027.8967   -2776.7294    1523.2975    1660.4201     462.7329            0    3646.4505   -4363.2922   -53.347194    34.426566    34.426566    34.426566            0            0            0   0.76636754 
   67000    40897.104    307.78721   -26751.878    3393.6668    910.61291    4304.2797   -11651.672   -1444.5297     3028.506    -2779.298    1566.7579    1660.4201     462.7329            0    3689.9109   -4363.2743   -53.223098    34.453302    34.453302    34.453302            0            0            0   0.76458481 
   68000    40992.387    307.78721   -28322.159    3393.6668     954.1726    4347.8394   -12584.051   -1447.6213     3029.548   -2781.3298    1612.3494    1660.4201     462.7329            0    3735.5024   -4363.2565   -53.099385    34.480038    34.480038    34.480038            0            0            0    0.7628076 
   69000    41087.818    307.78721    -29888.31    3393.6668    999.63742    4393.3042   -13516.479   -1450.5972    3030.2483   -2783.5875    1660.0719    1660.4201     462.7329            0    3783.2249   -4363.2386   -52.976056    34.506774    34.506774    34.506774            0            0            0    0.7610359 
   70000    41183.396    307.78721   -31446.585    3393.6668    1047.6624    4441.3292   -14446.043   -1453.4803    3031.2849   -2785.4162    1709.9256    1660.4201     462.7329            0    3833.0786   -4363.2208   -52.853109     34.53351     34.53351     34.53351            0            0            0   0.75926968 
   71000    41279.123    307.78721   -32997.668    3393.6668     1098.141    4491.8078    -15373.24   -1456.2537    3032.5344   -2786.9223    1761.9103    1660.4201     462.7329            0    3885.0633   -4363.2029   -52.730542    34.560246    34.560246    34.560246            0            0            0   0.75750892 
   72000    41374.999    307.78721   -34544.499    3393.6668    1150.5605    4544.2273   -16300.335   -1458.9135      3033.48   -2788.6186     1816.026    1660.4201     462.7329            0    3939.1791   -4363.1851   -52.608353    34.586982    34.586982    34.586982            0            0            0    0.7557536 
   73000    41471.022    307.78721   -36085.135    3393.6668    1205.2624    4598.9292   -17225.805   -1461.4794    3034.4831   -2790.1635    1872.2729    1660.4201     462.7329            0    3995.4259   -4363.1672   -52.486542    34.613718    34.613718    34.613718            0            0            0    0.7540037 
   74000    41567.194    307.78721   -37618.893    3393.6668    1262.3761    4656.0429    -18149.09   -1463.9452    3035.6668   -2791.4278    1930.6508    1660.4201     462.7329            0    4053.8038   -4363.1494   -52.365106    34.640454    34.640454    34.640454            0            0            0    0.7522592 
   75000    41663.515    307.78721   -39148.822    3393.6668    1321.3627    4715.0295   -19072.563   -1466.3139    3036.4953   -2792.9501    1991.1598    1660.4201     462.7329            0    4114.3128   -4363.1315   -52.244045     34.66719     34.66719     34.66719            0            0            0   0.75052007 
   76000    41759.984    307.78721   -40671.868    3393.6668    1382.7739    4776.4407   -19993.806    -1468.582    3037.5167    -2794.179    2053.7998    1660.4201     462.7329            0    4176.9529   -4363.1137   -52.123357    34.693925    34.693925    34.693925            0            0            0   0.74878631 
   77000    41856.602    307.78721   -42188.815    3393.6668    1446.4711    4840.1379   -20913.417   -1470.7591     3038.602   -2795.2529     2118.571    1660.4201     462.7329            0     4241.724   -4363.0958    -52.00304    34.720661    34.720661    34.720661            0            0            0   0.74705787 
   78000    41953.369    307.78721   -43700.521    3393.6668    1512.3102     4905.977   -21832.049   -1472.8349    3039.5968    -2796.316    2185.4732    1660.4201     462.7329            0    4308.6262    -4363.078   -51.883093    34.747397    34.747397    34.747397            0            0            0   0.74533476 
   79000    42050.285    307.78721   -45207.282    3393.6668    1580.2384    4973.9052   -22749.925   -1474.8206    3040.4596   -2797.4211    2254.5064    1660.4201     462.7329            0    4377.6595   -4363.0601   -51.763514    34.774133    34.774133    34.774133            0            0            0   0.74361694 
   80000     42147.35    307.78721   -46708.598    3393.6668    1650.3479    5044.0148   -23666.634   -1476.7216     3041.288   -2798.4759    2325.6708    1660.4201     462.7329            0    4448.8238   -4363.0423   -51.644303    34.800869    34.800869    34.800869            0            0            0   0.74190439 
   81000    42244.565    307.78721   -48202.731    3393.6668    1722.9601    5116.6269   -24580.769   -1478.5343    3042.3995   -2799.1592    2398.9662    1660.4201     462.7329            0    4522.1192   -4363.0244   -51.525458    34.827605    34.827605    34.827605            0            0            0    0.7401971 
   82000    42341.928    307.78721   -49691.725    3393.6668    1797.7116    5191.3785   -25493.937   -1480.2559    3043.4284   -2799.8341    2474.3927    1660.4201     462.7329            0    4597.5457   -4363.0066   -51.406977    34.854341    34.854341    34.854341            0            0            0   0.73849504 
   83000    42439.442    307.78721   -51176.562    3393.6668    1874.4258    5268.0926    -26406.91   -1481.8955    3044.2067   -2800.6775    2551.9502    1660.4201     462.7329            0    4675.1033   -4362.9887   -51.288859    34.881077    34.881077    34.881077            0            0            0    0.7367982 
   84000    42537.105    307.78721   -52654.273    3393.6668    1953.6496    5347.3164   -27317.291   -1483.4456    3045.2742   -2801.1423    2631.6389    1660.4201     462.7329            0    4754.7919   -4362.9709   -51.171103    34.907813    34.907813    34.907813            0            0            0   0.73510655 
   85000    42634.917    307.78721   -54127.628    3393.6668    2034.8799    5428.5467   -28227.284   -1484.9174    3046.1387   -2801.7317    2713.4586    1660.4201     462.7329            0    4836.6116    -4362.953   -51.053706    34.934549    34.934549    34.934549            0            0            0   0.73342008 
   86000     42732.88    307.78721   -55596.705    3393.6668     2118.113    5511.7798   -29136.933    -1486.294    3046.7798   -2802.4494    2797.4094    1660.4201     462.7329            0    4920.5624   -4362.9352   -50.936669    34.961285    34.961285    34.961285            0            0            0   0.73173876 
   87000    42830.992    307.78721    -57059.02    3393.6668    2203.8025    5597.4694   -30044.224   -1487.5894     3047.665   -2802.8417    2883.4912    1660.4201     462.7329            0    5006.6442   -4362.9173   -50.819989    34.988021    34.988021    34.988021            0            0            0   0.73006258 
   88000    42929.254    307.78721   -58517.209    3393.6668    2291.4691     5685.136   -30951.268   -1488.8068    3048.3182    -2803.388    2971.7041    1660.4201     462.7329            0    5094.8571   -4362.8995   -50.703665    35.014757    35.014757    35.014757            0            0            0   0.72839151 
   89000    43027.667    307.78721    -59969.35    3393.6668    2381.4719    5775.1387   -31856.491   -1489.9427     3049.095   -2803.7293    3062.0481    1660.4201     462.7329            0    5185.2011   -4362.8816   -50.587696    35.041493    35.041493    35.041493            0            0            0   0.72672554 
   90000     43126.23    307.78721   -61414.783    3393.6668    2473.9382     5867.605   -32759.335   -1490.9977    3050.1235    -2803.738    3154.5232    1660.4201     462.7329            0    5277.6762   -4362.8638    -50.47208    35.068229    35.068229    35.068229            0            0            0   0.72506464 
   91000    43224.943    307.78721   -62856.192    3393.6668    2568.3758    5962.0426   -33661.964   -1491.9769    3050.9164   -2803.9065    3249.1293    1660.4201     462.7329            0    5372.2823    -4362.846   -50.356817    35.094965    35.094965    35.094965            0            0            0    0.7234088 
   92000    43323.807    307.78721   -64291.456    3393.6668    2665.1789    6058.8457   -34562.636   -1492.8863    3051.8737   -2803.8406    3345.8665    1660.4201     462.7329            0    5469.0195   -4362.8281   -50.241904    35.121701    35.121701    35.121701            0            0            0     0.721758 
   93000    43422.821    307.78721   -65719.578    3393.6668    2764.5445    6158.2113   -35460.506   -1493.7121    3053.1791   -2803.3433    3444.7348    1660.4201     462.7329            0    5567.8878   -4362.8103    -50.12734    35.148437    35.148437    35.148437            0            0            0   0.72011222 
   94000    43521.986    307.78721   -67143.957    3393.6668    2865.8402     6259.507   -36358.342   -1494.4673    3054.2128   -2803.0469    3545.7341    1660.4201     462.7329            0    5668.8871   -4362.7924   -50.013125    35.175173    35.175173    35.175173            0            0            0   0.71847144 
   95000    43621.302    307.78721   -68562.674    3393.6668    2969.4275    6363.0944   -37254.556   -1495.1537    3055.3383     -2802.59    3648.8645    1660.4201     462.7329            0    5772.0176   -4362.7746   -49.899256    35.201908    35.201908    35.201908            0            0            0   0.71683564 
   96000    43720.769    307.78721   -69975.402    3393.6668    3075.3754    6469.0422   -38148.854   -1495.7639     3056.617   -2801.9037     3754.126    1660.4201     462.7329            0     5877.279   -4362.7568   -49.785733    35.228644    35.228644    35.228644            0            0            0    0.7152048 
   97000    43820.387    307.78721   -71383.598    3393.6668    3183.4129    6577.0797   -39042.422   -1496.3064    3057.7866   -2801.2588    3861.5186    1660.4201     462.7329            0    5984.6716   -4362.7389   -49.672553     35.25538     35.25538     35.25538            0            0            0   0.71357891 
   98000    43920.157    307.78721   -72787.304    3393.6668    3293.5361     6687.203   -39935.281   -1496.7807    3058.8428   -2800.6591    3971.0422    1660.4201     462.7329            0    6094.1952   -4362.7211   -49.559717    35.282116    35.282116    35.282116            0            0            0   0.71195794 
   99000    44020.077    307.78721   -74186.452    3393.6668    3405.7633    6799.4301   -40827.358   -1497.1845    3059.8011   -2800.0866    4082.6969    1660.4201     462.7329            0    6205.8499   -4362.7033   -49.447222    35.308852    35.308852    35.308852            0            0            0   0.71034187 
  100000    44120.149    307.78721   -75580.845    3393.6668    3520.1353    6913.8022   -41718.475   -1497.5182    3060.7033   -2799.5004    4196.4827    1660.4201     462.7329            0    6319.6357   -4362.6855   -49.335067    35.335588    35.335588    35.335588            0            0            0    0.7087307 
  101000    44220.373    307.78721   -76967.969    3393.6668    3637.1278    7030.7946   -42606.524   -1497.7931    3062.0361   -2798.4247    4312.3995    1660.4201     462.7329            0    6435.5526   -4362.6676   -49.223251    35.362324    35.362324    35.362324            0            0            0   0.70712439 
  102000    44320.748    307.78721   -78353.694    3393.6668    3755.6371    7149.3039   -43496.381   -1498.0004    3062.6868   -2797.9634    4430.4474    1660.4201     462.7329            0    6553.6005   -4362.6498   -49.111773     35.38906     35.38906     35.38906            0            0            0   0.70552293 
  103000    44421.275    307.78721   -79732.677    3393.6668    3876.6805    7270.3473   -44383.569   -1498.1414    3063.6745    -2797.099    4550.6264    1660.4201     462.7329            0    6673.7795    -4362.632   -49.000631    35.415796    35.415796    35.415796            0            0            0    0.7039263 
  104000    44521.954    307.78721   -81107.771    3393.6668     3999.717    7393.3839   -45270.463   -1498.2228    3064.4645   -2796.3725    4672.9365    1660.4201     462.7329            0    6796.0895   -4362.6142   -48.889825    35.442532    35.442532    35.442532            0            0            0   0.70233449 
  105000    44622.785    307.78721   -82476.681    3393.6668    4125.1892     7518.856   -46155.116   -1498.2444    3065.4993   -2795.3415    4797.3776    1660.4201     462.7329            0    6920.5307   -4362.5964   -48.779352    35.469268    35.469268    35.469268            0            0            0   0.70074748 
  106000    44723.768    307.78721   -83839.784    3393.6668    4253.0312     7646.698   -47037.825   -1498.2035    3066.7104   -2794.0717    4923.9498    1660.4201     462.7329            0    7047.1029   -4362.5785   -48.669211    35.496004    35.496004    35.496004            0            0            0   0.69916524 
  107000    44824.904    307.78721   -85199.658    3393.6668    4382.7549    7776.4217   -47920.746   -1498.0976    3067.6071   -2793.0513    5052.6531    1660.4201     462.7329            0    7175.8061   -4362.5607   -48.559402     35.52274     35.52274     35.52274            0            0            0   0.69758776 
  108000    44926.191    307.78721   -86556.072    3393.6668    4514.4049    7908.0717   -48803.676   -1497.9332    3068.2406   -2792.2356    5183.4874    1660.4201     462.7329            0    7306.6405   -4362.5429   -48.449924    35.549476    35.549476    35.549476            0            0            0   0.69601503 
  109000    45027.631    307.78721   -87907.494    3393.6668    4648.2783    8041.9451   -49685.308   -1497.7131    3068.9106   -2791.3276    5316.4529    1660.4201     462.7329            0    7439.6059   -4362.5251   -48.340774    35.576212    35.576212    35.576212            0            0            0   0.69444701 
  110000    45129.224    307.78721   -89251.731    3393.6668    4784.8024    8178.4692   -50563.757   -1497.4399    3070.0472      -2789.9    5451.5493    1660.4201     462.7329            0    7574.7024   -4362.5073   -48.231951    35.602948    35.602948    35.602948            0            0            0   0.69288371 
  111000     45230.97    307.78721   -90592.234    3393.6668    4923.3201    8316.9869   -51441.936   -1497.1018    3070.9815   -2788.6098    5588.7769    1660.4201     462.7329            0    7711.9299   -4362.4895   -48.123455    35.629684    35.629684    35.629684            0            0            0   0.69132509 
  112000    45332.868    307.78721   -91930.052    3393.6668    5063.6263    8457.2931   -52320.733   -1496.7113    3071.5207   -2787.6623    5728.1355    1660.4201     462.7329            0    7851.2886   -4362.4717   -48.015284     35.65642     35.65642     35.65642            0            0            0   0.68977115 
  113000    45434.919    307.78721   -93261.935    3393.6668    5206.3579    8600.0247   -53197.356   -1496.2624    3072.2959   -2786.4204    5869.6252    1660.4201     462.7329            0    7992.7783   -4362.4539   -47.907437    35.683155    35.683155    35.683155            0            0            0   0.68822186 
  114000    45537.123    307.78721   -94587.382    3393.6668    5351.6122    8745.2791   -54071.358   -1495.7697     3073.419   -2784.7868     6013.246    1660.4201     462.7329            0     8136.399   -4362.4361   -47.799913    35.709891    35.709891    35.709891            0            0            0    0.6866772 
  115000     45639.48    307.78721   -95906.874    3393.6668     5499.308    8892.9748   -54943.121   -1495.2167    3074.7921   -2782.8429    6158.9979    1660.4201     462.7329            0    8282.1509   -4362.4183   -47.692711    35.736627    35.736627    35.736627            0            0            0   0.68513716 
  116000    45741.991    307.78721   -97223.039    3393.6668    5648.9341    9042.6009    -55814.89   -1494.6088    3075.9097   -2781.0997    6306.8808    1660.4201     462.7329            0    8430.0338   -4362.4005   -47.585828    35.763363    35.763363    35.763363            0            0            0   0.68360173 
  117000    45844.655    307.78721   -98535.246    3393.6668    5800.6148    9194.2816   -56686.115   -1493.9504    3076.9001    -2779.433    6456.8948    1660.4201     462.7329            0    8580.0478   -4362.3827   -47.479265    35.790099    35.790099    35.790099            0            0            0   0.68207088 
  118000    45947.473    307.78721   -99842.119    3393.6668    5954.6217    9348.2885   -57555.592   -1493.2491    3078.0428   -2777.5712    6609.0398    1660.4201     462.7329            0    8732.1928   -4362.3649    -47.37302    35.816835    35.816835    35.816835            0            0            0    0.6805446 
  119000    46050.444    307.78721   -101144.88    3393.6668    6110.7216    9504.3885   -58424.363   -1492.4957    3079.0955   -2775.7473     6763.316    1660.4201     462.7329            0     8886.469   -4362.3472   -47.267092    35.843571    35.843571    35.843571            0            0            0   0.67902287 
  120000    46153.568    307.78721   -102443.03    3393.6668    6269.0192     9662.686   -59291.969     -1491.69    3080.1624    -2773.857    6919.7232    1660.4201     462.7329            0    9042.8762   -4362.3294   -47.161479    35.870307    35.870307    35.870307            0            0            0   0.67750567 
  121000    46256.847    307.78721   -103739.01    3393.6668    6429.0303    9822.6971   -60160.536   -1490.8387    3080.7661   -2772.3841    7078.2614    1660.4201     462.7329            0    9201.4145   -4362.3116    -47.05618    35.897043    35.897043    35.897043            0            0            0   0.67599299 
  122000     46360.28    307.78721   -105029.62    3393.6668    6591.3912     9985.058   -61027.269   -1489.9404    3081.5416   -2770.6926    7238.9308    1660.4201     462.7329            0    9362.0838   -4362.2938   -46.951195    35.923779    35.923779    35.923779            0            0            0    0.6744848 
  123000    46463.866    307.78721   -106315.32    3393.6668    6756.0197    10149.687   -61892.531    -1488.995    3082.4065   -2768.8645    7401.7312    1660.4201     462.7329            0    9524.8842    -4362.276   -46.846522    35.950515    35.950515    35.950515            0            0            0   0.67298111 
  124000    46567.607    307.78721   -107597.85    3393.6668    6922.5691    10316.236    -62757.85   -1488.0031    3083.0147   -2767.2466    7566.6627    1660.4201     462.7329            0    9689.8157   -4362.2583    -46.74216    35.977251    35.977251    35.977251            0            0            0   0.67148187 
  125000    46671.503    307.78721   -108875.15    3393.6668    7091.4515    10485.118   -63621.404   -1486.9712     3083.785   -2765.4267    7733.7252    1660.4201     462.7329            0    9856.8783   -4362.2405   -46.638107    36.003987    36.003987    36.003987            0            0            0   0.66998709 
  126000    46775.552    307.78721   -110148.02    3393.6668    7262.5158    10656.183    -64483.87   -1485.8935    3084.5601   -2763.5561    7902.9189    1660.4201     462.7329            0    10026.072   -4362.2227   -46.534363    36.030723    36.030723    36.030723            0            0            0   0.66849674 
  127000    46879.756    307.78721   -111416.94    3393.6668     7435.667    10829.334   -65345.666   -1484.7717     3085.247   -2761.7296    8074.2436    1660.4201     462.7329            0    10197.397    -4362.205   -46.430927    36.057459    36.057459    36.057459            0            0            0   0.66701081 
  128000    46984.115    307.78721   -112680.39    3393.6668    7611.2157    11004.882   -66205.422   -1483.6083    3086.1589   -2759.6367    8247.6993    1660.4201     462.7329            0    10370.852   -4362.1872   -46.327797    36.084195    36.084195    36.084195            0            0            0   0.66552928 
  129000    47088.629    307.78721   -113939.79    3393.6668    7788.8765    11182.543   -67064.395   -1482.4043     3087.011   -2757.5627    8423.2862    1660.4201     462.7329            0    10546.439   -4362.1695   -46.224972    36.110931    36.110931    36.110931            0            0            0   0.66405213 
  130000    47193.297    307.78721   -115193.96    3393.6668    7968.8969    11362.564   -67921.503   -1481.1556     3088.047   -2755.2603    8601.0041    1660.4201     462.7329            0    10724.157   -4362.1517   -46.122451    36.137667    36.137667    36.137667            0            0            0   0.66257935 
  131000     47298.12    307.78721   -116443.98    3393.6668    8151.0584    11544.725   -68777.703   -1479.8674    3089.0536   -2752.9477    8780.8531    1660.4201     462.7329            0    10904.006    -4362.134   -46.020233    36.164403    36.164403    36.164403            0            0            0   0.66111093 
  132000    47403.099    307.78721   -117689.73    3393.6668    8335.3919    11729.059   -69632.862   -1478.5393    3090.0612   -2750.5943    8962.8332    1660.4201     462.7329            0    11085.986   -4362.1162   -45.918317    36.191138    36.191138    36.191138            0            0            0   0.65964683 
  133000    47508.233    307.78721   -118931.99    3393.6668    8521.7419    11915.409   -70487.672   -1477.1675    3090.9106   -2748.3554    9146.9443    1660.4201     462.7329            0    11270.097   -4362.0985   -45.816702    36.217874    36.217874    36.217874            0            0            0   0.65818706 
  134000    47613.522    307.78721   -120169.83    3393.6668    8710.2964    12103.963   -71341.293   -1475.7627    3091.8003   -2746.0431    9333.1865    1660.4201     462.7329            0     11456.34   -4362.0808   -45.715386     36.24461     36.24461     36.24461            0            0            0    0.6567316 
  135000    47718.966    307.78721   -121402.84    3393.6668    8901.1465    12294.813   -72193.329   -1474.3214    3092.8181   -2743.5663    9521.5598    1660.4201     462.7329            0    11644.713    -4362.063   -45.614369    36.271346    36.271346    36.271346            0            0            0   0.65528042 
  136000    47824.566    307.78721   -122631.58    3393.6668    9094.1808    12487.848   -73044.276   -1472.8423    3093.8513   -2741.0363    9712.0641    1660.4201     462.7329            0    11835.217   -4362.0453   -45.513649    36.298082    36.298082    36.298082            0            0            0   0.65383351 
  137000    47930.322    307.78721    -123855.9    3393.6668    9289.4348    12683.102   -73893.982   -1471.3229    3094.9327   -2738.4178    9904.6995    1660.4201     462.7329            0    12027.853   -4362.0276   -45.413226    36.324818    36.324818    36.324818            0            0            0   0.65239086 
  138000    48036.234    307.78721   -125075.76    3393.6668    9486.9225    12880.589   -74742.381   -1469.7674    3096.0807   -2735.6965    10099.466    1660.4201     462.7329            0    12222.619   -4362.0098   -45.313097    36.351554    36.351554    36.351554            0            0            0   0.65095245 
  139000    48142.301    307.78721   -126292.95    3393.6668    9686.2726    13079.939    -75591.11   -1468.1767    3096.9248    -2733.244    10296.364    1660.4201     462.7329            0    12419.517   -4361.9921   -45.213263     36.37829     36.37829     36.37829            0            0            0   0.64951827 
  140000    48248.525    307.78721    -127505.9    3393.6668    9887.8148    13281.482   -76438.716   -1466.5521    3097.7961   -2730.7304    10495.392    1660.4201     462.7329            0    12618.545   -4361.9744   -45.113722    36.405026    36.405026    36.405026            0            0            0    0.6480883 
  141000    48354.904    307.78721   -128714.42    3393.6668    10091.593     13485.26   -77285.007   -1464.8965    3098.7411   -2728.1122    10696.552    1660.4201     462.7329            0    12819.705   -4361.9567   -45.014473    36.431762    36.431762    36.431762            0            0            0   0.64666252 
  142000     48461.44    307.78721   -129918.31    3393.6668    10297.651    13691.318   -78129.799   -1463.2013    3099.7957   -2725.3445    10899.843    1660.4201     462.7329            0    13022.996    -4361.939   -44.915515    36.458498    36.458498    36.458498            0            0            0   0.64524092 
  143000    48568.132    307.78721    -131122.4    3393.6668    10506.571    13900.237    -78975.91    -1461.473    3100.7037   -2721.8469    11105.265    1660.4201     462.7329            0    13228.418   -4361.0776   -44.816847    36.485234    36.485234    36.485234            0            0            0   0.64382348 
  144000    48674.981    307.78721   -132319.02    3393.6668    10716.791    14110.458   -79819.466   -1459.7195    3101.5946   -2719.1792    11312.817    1660.4201     462.7329            0     13435.97   -4361.0543   -44.718467     36.51197     36.51197     36.51197            0            0            0    0.6424102 
  145000    48781.986    307.78721   -133511.11    3393.6668    10929.285    14322.952   -80661.555   -1457.9308    3102.5923   -2716.3696    11522.501    1660.4201     462.7329            0    13645.654   -4361.0311   -44.620375    36.538706    36.538706    36.538706            0            0            0   0.64100104 
  146000    48889.148    307.78721   -134701.06    3393.6668    11143.551    14537.217   -81504.382   -1456.1085    3103.1975   -2713.9188    11734.316    1660.4201     462.7329            0     13857.47   -4361.0078    -44.52257    36.565442    36.565442    36.565442            0            0            0   0.63959601 
  147000    48996.467    307.78721   -135885.81    3393.6668    11360.236    14753.903   -82345.096   -1454.2546    3104.0596   -2711.1795    11948.263    1660.4201     462.7329            0    14071.416   -4360.9845   -44.425051    36.592178    36.592178    36.592178            0            0            0   0.63819508 
  148000    49103.943    307.78721   -137066.71    3393.6668    11579.058    14972.725   -83184.949   -1452.3657    3104.8923   -2708.4346     12164.34    1660.4201     462.7329            0    14287.493   -4360.9612   -44.327816    36.618914    36.618914    36.618914            0            0            0   0.63679823 
  149000    49211.576    307.78721   -138244.47    3393.6668    11799.872    15193.539   -84024.564   -1450.4528    3105.5619   -2705.8288    12382.548    1660.4201     462.7329            0    14505.701   -4360.9379   -44.230864     36.64565     36.64565     36.64565            0            0            0   0.63540546 
  150000    49319.366    307.78721   -139419.86    3393.6668    12022.514    15416.181   -84864.674   -1448.5104    3105.8989    -2703.526    12602.887    1660.4201     462.7329            0     14726.04   -4360.9145   -44.134196    36.672385    36.672385    36.672385            0            0            0   0.63401675 
  150498    49373.104    307.78721    -140001.7    3393.6668    12134.628    15528.295   -85280.778   -1447.5389    3106.5051   -2701.9366    12713.411    1660.4201     462.7329            0    14836.564   -4360.9029    -44.08616      36.6857      36.6857      36.6857            0            0            0   0.63332668 
Loop time of 231.199 on 48 procs for 100000 steps with 3700 atoms

Performance: 37.370 ns/day, 0.642 hours/ns, 432.528 timesteps/s
55.8% CPU use with 48 MPI tasks x 1 OpenMP threads

MPI task timing breakdown:
Section |  min time  |  avg time  |  max time  |%varavg| %total
---------------------------------------------------------------
Pair    | 58.435     | 74.295     | 90.015     |  92.9 | 32.13
Bond    | 3.6136     | 5.0061     | 6.5624     |  34.0 |  2.17
Kspace  | 30.946     | 51.407     | 72.705     | 135.1 | 22.23
Neigh   | 0.022414   | 0.024802   | 0.027153   |   1.0 |  0.01
Comm    | 69.465     | 81.837     | 100.22     |  82.1 | 35.40
Output  | 0.11412    | 0.12402    | 0.13709    |   1.3 |  0.05
Modify  | 0.53286    | 0.63544    | 1.1373     |  16.6 |  0.27
Other   |            | 17.87      |            |       |  7.73

Nlocal:    77.0833 ave 89 max 67 min
Histogram: 7 5 4 5 6 6 4 2 3 6
Nghost:    3505.29 ave 3546 max 3477 min
Histogram: 8 6 6 3 5 6 8 3 1 2
Neighs:    26820.6 ave 31952 max 21395 min
Histogram: 3 2 7 6 6 7 4 2 5 6

Total # of neighbors = 1287390
Ave neighs/atom = 347.943
Ave special neighs/atom = 9.56757
Neighbor list builds = 15
Dangerous builds = 0
# >>>>>>>>>  Equilibration run <<<<<<<<<<<<<<<<<<<<<<<<<<<<<<<<<<

fix             NVT_equib all nvt temp ${simulationTemp} ${simulationTemp} 100
fix             NVT_equib all nvt temp 310 ${simulationTemp} 100
fix             NVT_equib all nvt temp 310 310 100

print           "Step Density Temperature Pressure KinEng PotEng TotEng" file Properties_equib_acetone50p.txt
Step Density Temperature Pressure KinEng PotEng TotEng
fix             PRINT_equib all print ${printfreq} "$(v_step) $(v_density) $(v_temp) $(v_press) $(v_pe) $(v_ke) $(v_etotal) $(v_enthalpy)" append Properties_equib_acetone50p.txt title ""
fix             PRINT_equib all print 1000 "$(v_step) $(v_density) $(v_temp) $(v_press) $(v_pe) $(v_ke) $(v_etotal) $(v_enthalpy)" append Properties_equib_acetone50p.txt title ""
# The 'print' and fix print' commands as used above will create a file named 'Properties_equib.txt' which allows you to quickly make plots to test for equilibration


run             ${NVT_equib}
run             100000
Ewald initialization ...
  using 12-bit tables for long-range coulomb (src/kspace.cpp:332)
  G vector (1/distance) = 0.168113
  estimated absolute RMS force accuracy = 0.0450476
  estimated relative force accuracy = 0.00013566
  KSpace vectors: actual max1d max3d = 128 4 364
                  kxmax kymax kzmax  = 4 4 4
Per MPI rank memory allocation (min/avg/max) = 23.15 | 23.36 | 23.64 Mbytes
Step Volume Temp Press KinEng PotEng TotEng Enthalpy E_vdwl E_coul E_pair E_bond E_angle E_dihed E_impro E_mol E_long E_tail Lx Ly Lz Xy Xz Yz Density 
  150498    49373.104    307.78721    -140000.4    3393.6668    12134.035    15527.702   -85280.436   -1447.5367    3047.3181    -2702.752    12713.634    1660.4201     462.7329            0    14836.787   -4302.5335    -44.08616      36.6857      36.6857      36.6857            0            0            0   0.63332668 
151000 0.63332668440879702487 364.00133286814201483 -4070.9126358062399049 1428.6459885993499483 4013.4846567077602231 5442.130645307100167 2510.845261805950031
  151000    49373.104    364.00133   -4070.9126    4013.4847     1428.646    5442.1306    2510.8453   -1005.3985    2978.2219   -2329.1071    1568.2753    1762.6817    426.79603            0     3757.753   -4301.9304    -44.08616      36.6857      36.6857      36.6857            0            0            0   0.63332668 
152000 0.63332668440879702487 305.53744821442001012 -2529.4884866729698842 859.19300492139097969 3368.8609071726300499 4228.0539120940202338 2406.6803548473199044
  152000    49373.104    305.53745   -2529.4885    3368.8609      859.193    4228.0539    2406.6804   -1095.3745    2900.5079   -2497.3248    1295.8341    1655.6387    405.04501            0    3356.5178   -4302.4583    -44.08616      36.6857      36.6857      36.6857            0            0            0   0.63332668 
153000 0.63332668440879702487 305.78446883407599444 -1946.5656644666200918 915.75618179933201191 3371.5845605699100815 4287.340742369239706 2885.7043058392901003
  153000    49373.104    305.78447   -1946.5657    3371.5846    915.75618    4287.3407    2885.7043   -1093.7249    2912.9868   -2483.1458    1272.8551    1695.3961    430.65078            0     3398.902   -4302.4078    -44.08616      36.6857      36.6857      36.6857            0            0            0   0.63332668 
154000 0.63332668440879602567 313.16535700196197922 297.76971502762899036 870.12058893544701732 3452.9663543706901692 4323.0869433061398013 4537.4978362426600142
  154000    49373.104    313.16536    297.76972    3452.9664    870.12059    4323.0869    4537.4978    -1066.748    2879.3482   -2492.4711    1219.4301    1709.3662    433.79543            0    3362.5917   -4305.0714    -44.08616      36.6857      36.6857      36.6857            0            0            0   0.63332668 
155000 0.63332668440879702487 303.42173201830399876 -720.7583010466170208 877.54038136522103741 3345.5329857495098622 4223.0733671147299901 3704.0869721938202019
  155000    49373.104    303.42173    -720.7583     3345.533    877.54038    4223.0734     3704.087   -1091.6734    2904.7698   -2489.0932    1210.4762      1742.26    413.89747            0    3366.6336   -4302.1896    -44.08616      36.6857      36.6857      36.6857            0            0            0   0.63332668 
156000 0.63332668440879602567 309.42337718846602002 -1192.37406372327996 911.61226872147699396 3411.7072236723502101 4323.3194923938299326 3464.7433014150401505
  156000    49373.104    309.42338   -1192.3741    3411.7072    911.61227    4323.3195    3464.7433   -1103.1224     2937.372   -2469.7783    1212.3388    1724.6698    444.38192            0    3381.3905   -4304.0279    -44.08616      36.6857      36.6857      36.6857            0            0            0   0.63332668 
157000 0.63332668440879702487 308.05063523178199603 -1432.993198795679973 874.94352601629600485 3396.5713483793701926 4271.5148743956697217 3239.679412897380189
  157000    49373.104    308.05064   -1432.9932    3396.5713    874.94353    4271.5149    3239.6794   -1086.4136     2928.669   -2460.9483    1203.6182    1729.2623    403.01139            0    3335.8918   -4303.2037    -44.08616      36.6857      36.6857      36.6857            0            0            0   0.63332668 
158000 0.63332668440879702487 307.28972938145102489 573.3784360174199719 751.66775173861401527 3388.1815880138301509 4139.8493397524498505 4552.7139671899103632
  158000    49373.104    307.28973    573.37844    3388.1816    751.66775    4139.8493     4552.714   -1128.0859    2951.5179   -2480.9309    1162.6781    1633.8499    436.07065            0    3232.5986   -4304.3629    -44.08616      36.6857      36.6857      36.6857            0            0            0   0.63332668 
159000 0.63332668440879602567 310.13923455485200975 780.86988155460994676 858.58523669145995427 3419.6002787162601635 4278.1855154077202315 4840.4556191885103544
  159000    49373.104    310.13923    780.86988    3419.6003    858.58524    4278.1855    4840.4556   -1103.3245    2942.3267   -2461.1909     1186.806    1680.7638    452.20639            0    3319.7762   -4300.1931    -44.08616      36.6857      36.6857      36.6857            0            0            0   0.63332668 
160000 0.63332668440879702487 307.34373644763900302 -1836.761310947560105 820.80110039868395688 3388.7770708099801595 4209.5781712086700281 2887.0070267422702273
  160000    49373.104    307.34374   -1836.7613    3388.7771     820.8011    4209.5782     2887.007   -1081.8172    2908.7669   -2476.1219    1204.1555    1646.8333    445.93426            0     3296.923   -4303.0717    -44.08616      36.6857      36.6857      36.6857            0            0            0   0.63332668 
161000 0.63332668440879702487 310.82961328966399606 -2066.8386015103201316 848.67237676089098386 3427.2124059512098029 4275.8847827120998772 2787.645086931140213
  161000    49373.104    310.82961   -2066.8386    3427.2124    848.67238    4275.8848    2787.6451   -1101.6981    2954.3352   -2449.7482    1178.3936     1678.509    441.51804            0    3298.4206   -4302.3854    -44.08616      36.6857      36.6857      36.6857            0            0            0   0.63332668 
162000 0.63332668440879702487 313.19246612563597409 -1235.4595808813498934 833.91940499930501574 3453.265260012230101 4287.1846650115403463 3397.584485560199937
  162000    49373.104    313.19247   -1235.4596    3453.2653     833.9194    4287.1847    3397.5845    -1089.859    2973.5422   -2418.5047    1162.2946      1654.45    435.67948            0    3252.4241   -4302.1879    -44.08616      36.6857      36.6857      36.6857            0            0            0   0.63332668 
163000 0.63332668440879602567 310.03612354355499292 -567.68684243645202514 728.54493103669096854 3418.4633750172602049 4147.0083060539500366 3738.2419451638897954
  163000    49373.104    310.03612   -567.68684    3418.4634    728.54493    4147.0083    3738.2419   -1120.9591    2946.9486   -2472.5815    1137.2027      1614.14    449.78369            0    3201.1264   -4298.5709    -44.08616      36.6857      36.6857      36.6857            0            0            0   0.63332668 
164000 0.63332668440879602567 312.02598530147298561 368.70563919374001216 841.80934770027397462 3440.4036233439501302 4282.2129710442295618 4547.7017072742601158
  164000    49373.104    312.02599    368.70564    3440.4036    841.80935     4282.213    4547.7017   -1101.8377    2963.6164   -2442.0258    1192.2161    1656.6744     434.9447            0    3283.8352   -4303.8046    -44.08616      36.6857      36.6857      36.6857            0            0            0   0.63332668 
165000 0.63332668440879702487 312.5455522245529778 -141.06671699561800892 867.15466353028295998 3446.1323767457201939 4313.2870402759999706 4211.7110934009197081
  165000    49373.104    312.54555   -141.06672    3446.1324    867.15466     4313.287    4211.7111   -1113.4985    2964.3926   -2450.7528    1200.3327    1673.4625    444.11224            0    3317.9074   -4301.6469    -44.08616      36.6857      36.6857      36.6857            0            0            0   0.63332668 
166000 0.63332668440879602567 312.47949281659799681 -764.39881351351505145 793.00282144260700079 3445.404004631890075 4238.4068260744897998 3687.9968149360402094
  166000    49373.104    312.47949   -764.39881     3445.404    793.00282    4238.4068    3687.9968   -1115.8774    2934.5697   -2485.2023    1161.6406    1668.7151     447.8494            0    3278.2051   -4303.8946    -44.08616      36.6857      36.6857      36.6857            0            0            0   0.63332668 
167000 0.63332668440879602567 303.25919474411398369 -795.41146679085397864 787.20793233676204181 3343.7408471027501946 4130.9487794395199671 3558.2079188360398803
  167000    49373.104    303.25919   -795.41147    3343.7408    787.20793    4130.9488    3558.2079   -1112.9339    2905.8082   -2510.1083    1191.7369    1667.0074    438.57203            0    3297.3163   -4302.9826    -44.08616      36.6857      36.6857      36.6857            0            0            0   0.63332668 
168000 0.63332668440879602567 305.43678067274601062 1536.3638949897099337 753.32084291548494548 3367.750945209710153 4121.0717881251903236 5227.3399476309796228
  168000    49373.104    305.43678    1536.3639    3367.7509    753.32084    4121.0718    5227.3399   -1112.0559    2920.5052    -2495.262    1133.9413     1679.707    434.93458            0    3248.5829   -4303.7113    -44.08616      36.6857      36.6857      36.6857            0            0            0   0.63332668 
169000 0.63332668440879702487 310.95436764303400423 -157.35323508177700091 701.08186978413402812 3428.587949494320128 4129.6698192784497223 4016.3666660776498247
  169000    49373.104    310.95437   -157.35324    3428.5879    701.08187    4129.6698    4016.3667   -1132.6843    2963.6228   -2472.3163    1132.2288    1625.0076    416.16176            0    3173.3982   -4303.2548    -44.08616      36.6857      36.6857      36.6857            0            0            0   0.63332668 
170000 0.63332668440879602567 310.1747592025660083 -973.44084886400901269 787.41867117916001462 3419.9919740636601091 4207.4106452428195553 3506.4786461426001551
  170000    49373.104    310.17476   -973.44085     3419.992    787.41867    4207.4106    3506.4786   -1121.9349    2946.1751   -2478.2942    1200.6475     1640.171    424.89446            0    3265.7129   -4302.5344    -44.08616      36.6857      36.6857      36.6857            0            0            0   0.63332668 
171000 0.63332668440879602567 308.35868770357001267 -152.45594134726800917 713.94996215148898955 3399.9679399776500759 4113.9179021291402023 4004.141075044110039
  171000    49373.104    308.35869   -152.45594    3399.9679    713.94996    4113.9179    4004.1411    -1134.679    2923.0622   -2514.5351    1164.8014    1639.4761    424.20755            0    3228.4851   -4302.9184    -44.08616      36.6857      36.6857      36.6857            0            0            0   0.63332668 
172000 0.63332668440879602567 309.78814265470202827 412.75143135461598831 771.91205905809601973 3415.7291336760899867 4187.64119273417964 4484.845369288400434
  172000    49373.104    309.78814    412.75143    3415.7291    771.91206    4187.6412    4484.8454   -1141.8583    2971.8377   -2473.5799    1156.4599    1651.7765    437.25557            0     3245.492   -4303.5593    -44.08616      36.6857      36.6857      36.6857            0            0            0   0.63332668 
173000 0.63332668440879602567 312.18465361391702118 327.62115514095597746 711.85672763186801149 3442.1531027551400257 4154.0098303870099699 4389.9154341927896894
  173000    49373.104    312.18465    327.62116    3442.1531    711.85673    4154.0098    4389.9154    -1159.127    2973.0827   -2487.5131    1144.6523    1618.1308    436.58665            0    3199.3698   -4301.4688    -44.08616      36.6857      36.6857      36.6857            0            0            0   0.63332668 
174000 0.63332668440879602567 312.15955974078400459 -1139.5523413317300765 687.58392306332302724 3441.8764172990599945 4129.4603403623896156 3308.9187516042002244
  174000    49373.104    312.15956   -1139.5523    3441.8764    687.58392    4129.4603    3308.9188   -1179.5381    2956.3873   -2526.2758     1157.034    1633.6772    423.14849            0    3213.8597    -4303.125    -44.08616      36.6857      36.6857      36.6857            0            0            0   0.63332668 
175000 0.63332668440879602567 313.44280150590498124 -1335.5468280648799464 841.5954295001289438 3456.025462014310051 4297.6208915144397906 3335.9522814700599156
  175000    49373.104     313.4428   -1335.5468    3456.0255    841.59543    4297.6209    3335.9523   -1169.5241    2988.5275   -2483.1173    1210.7496    1681.2243    432.73893            0    3324.7127   -4302.1207    -44.08616      36.6857      36.6857      36.6857            0            0            0   0.63332668 
176000 0.63332668440879602567 318.47602632926799515 -1032.6923976948698964 705.03577079653405235 3511.5218813355199927 4216.5576521320499523 3472.9612152077302198
  176000    49373.104    318.47603   -1032.6924    3511.5219    705.03577    4216.5577    3472.9612   -1152.7216    2946.2989   -2512.6686    1167.7136    1593.2101    456.78067            0    3217.7044   -4306.2459    -44.08616      36.6857      36.6857      36.6857            0            0            0   0.63332668 
177000 0.63332668440879602567 306.52422873381101454 81.84729150484760396 718.12817501719098345 3379.7411653379199379 4097.8693403551096708 4156.8039800123397072
  177000    49373.104    306.52423    81.847292    3379.7412    718.12818    4097.8693     4156.804    -1147.098    2913.8395   -2535.6571    1180.8194    1631.0318    441.93412            0    3253.7853   -4302.3986    -44.08616      36.6857      36.6857      36.6857            0            0            0   0.63332668 
178000 0.63332668440879602567 303.93557226326998943 -252.60998602110200295 786.84788937667599384 3351.1985967046098267 4138.0464860812899133 3956.1531304643799558
  178000    49373.104    303.93557   -252.60999    3351.1986    786.84789    4138.0465    3956.1531   -1119.2037    2954.1047    -2468.792    1184.6331    1647.3393     423.6674            0    3255.6398    -4303.693    -44.08616      36.6857      36.6857      36.6857            0            0            0   0.63332668 
179000 0.63332668440879702487 314.17721180362701716 -1028.5040316283300399 761.41470737301801819 3464.1230819829202119 4225.5377893559398217 3484.9572108717197807
  179000    49373.104    314.17721    -1028.504    3464.1231    761.41471    4225.5378    3484.9572   -1127.7069    2976.9428    -2456.098    1148.1074    1627.8253    441.58007            0    3217.5127   -4305.3339    -44.08616      36.6857      36.6857      36.6857            0            0            0   0.63332668 
180000 0.63332668440879602567 309.99981189902297274 -395.03299775161701746 744.87756730044395681 3418.0630022300501878 4162.9405695304903929 3878.4946587720501157
  180000    49373.104    309.99981     -395.033     3418.063    744.87757    4162.9406    3878.4947    -1146.085    2953.9493   -2495.8868    1178.5689    1633.7588     428.4367            0    3240.7643   -4303.7511    -44.08616      36.6857      36.6857      36.6857            0            0            0   0.63332668 
181000 0.63332668440879602567 308.4974506481599974 1264.1050984962500934 739.42977959324002768 3401.4979424769398975 4140.9277220701796978 5051.1542805670496818
  181000    49373.104    308.49745    1264.1051    3401.4979    739.42978    4140.9277    5051.1543   -1137.2657    2916.5316   -2524.7605    1194.1085    1647.0697    423.01207            0    3264.1902   -4304.0263    -44.08616      36.6857      36.6857      36.6857            0            0            0   0.63332668 
182000 0.63332668440879602567 309.08622810036797546 566.46129237607794948 715.14924205622799036 3407.9898123061898332 4123.1390543624102065 4531.0229504834896943
  182000    49373.104    309.08623    566.46129    3407.9898    715.14924    4123.1391     4531.023    -1151.038    2951.0325   -2502.5335    1149.8661    1650.0074     417.8093            0    3217.6828   -4302.5281    -44.08616      36.6857      36.6857      36.6857            0            0            0   0.63332668 
183000 0.63332668440879602567 308.14659230838998383 -623.80994346404497719 828.17312216134098435 3397.6293726773401431 4225.8024948386801043 3776.6243539777301521
  183000    49373.104    308.14659   -623.80994    3397.6294    828.17312    4225.8025    3776.6244   -1142.3141    3000.2409   -2446.7243    1211.8887    1636.7552    426.25346            0    3274.8974   -4304.6511    -44.08616      36.6857      36.6857      36.6857            0            0            0   0.63332668 
184000 0.63332668440879602567 306.65739082168897767 154.5136296475700135 779.69037256697197336 3381.2094126993902137 4160.8997852663596859 4272.1582633171701673
  184000    49373.104    306.65739    154.51363    3381.2094    779.69037    4160.8998    4272.1583   -1156.2859    2985.6049   -2467.2171    1196.3685    1624.7571    425.78185            0    3246.9074   -4296.5361    -44.08616      36.6857      36.6857      36.6857            0            0            0   0.63332668 
185000 0.63332668440879602567 302.21945437447499216 494.30116900855898621 788.3075355966529969 3332.2766527614198822 4120.5841883580696958 4476.5087491108597533
  185000    49373.104    302.21945    494.30117    3332.2767    788.30754    4120.5842    4476.5087   -1116.1314    2960.0546   -2458.2557    1172.4358    1647.8474    426.28004            0    3246.5633   -4302.1789    -44.08616      36.6857      36.6857      36.6857            0            0            0   0.63332668 
186000 0.63332668440879602567 304.98721574857398764 -195.81587017881199131 918.65400265954997394 3362.7940349941900422 4281.4480376537403572 4140.4496303029900446
  186000    49373.104    304.98722   -195.81587     3362.794      918.654     4281.448    4140.4496   -1080.0216    2927.3074   -2456.1855     1249.026    1665.7316    460.08185            0    3374.8395   -4303.4713    -44.08616      36.6857      36.6857      36.6857            0            0            0   0.63332668 
187000 0.63332668440879602567 305.3599835026499818 2.8118558172348100399 757.77569894960402053 3366.9041783546799707 4124.6798773042801258 4126.7045711739301623
  187000    49373.104    305.35998    2.8118558    3366.9042     757.7757    4124.6799    4126.7046   -1111.8905    2935.2399   -2479.5005    1195.6888    1618.5086    423.07886            0    3237.2762   -4302.8499    -44.08616      36.6857      36.6857      36.6857            0            0            0   0.63332668 
188000 0.63332668440879602567 305.59011939676099701 -1353.0966188781799246 754.66509662707494499 3369.4416604916100368 4124.1067571186904388 3149.8013135441401573
[...]
253000 0.63332668440879602567 312.95422729876901258 539.58453641947494361 853.22636558116698779 3450.6384348060500997 4303.86480038721038 4692.3959250440802862
  253000    49373.104    312.95423    539.58454    3450.6384    853.22637    4303.8648    4692.3959   -1050.6757    2891.3611   -2459.7635    1193.0337    1662.6385    457.31773            0    3312.9898    -4300.449    -44.08616      36.6857      36.6857      36.6857            0            0            0   0.63332668 
254000 0.63332668440879602567 309.91224944102600602 -123.6933573163459954 731.91972202515000845 3417.0975371343402003 4149.017259159490095 4059.9511055042999033
254000 0.63332668440879602567 309.91224944102600602 -123.6933573163459954 731.91972202515000845 3417.0975371343402003 4149.017259159490095 4059.9511055042999033
  254000    49373.104    309.91225   -123.69336    3417.0975    731.91972    4149.0173    4059.9511   -1126.1737     2918.306   -2506.6228    1128.8049    1686.6433    423.09424            0    3238.5425    -4298.755    -44.08616      36.6857      36.6857      36.6857            0            0            0   0.63332668 
255000 0.63332668440879602567 313.08468507008501547 -332.53780534449299466 885.58979025100700255 3452.0768643288201929 4337.6666545798298102 4098.2207869151097839
255000 0.63332668440879602567 313.08468507008501547 -332.53780534449299466 885.58979025100700255 3452.0768643288201929 4337.6666545798298102 4098.2207869151097839
  255000    49373.104    313.08469   -332.53781    3452.0769    885.58979    4337.6667    4098.2208   -1124.0636    2941.3509   -2480.2217    1190.5133    1748.6786    426.61956            0    3365.8115   -4297.5091    -44.08616      36.6857      36.6857      36.6857            0            0            0   0.63332668 
256000 0.63332668440879602567 309.52455805138697542 -482.68144558796598176 691.05480866262803374 3412.8228455237599519 4103.8776541863799139 3756.3199458989402046
256000 0.63332668440879602567 309.52455805138697542 -482.68144558796598176 691.05480866262803374 3412.8228455237599519 4103.8776541863799139 3756.3199458989402046
  256000    49373.104    309.52456   -482.68145    3412.8228    691.05481    4103.8777    3756.3199   -1142.9158    2924.9988   -2520.2714    1095.1424    1678.1255    438.05827            0    3211.3262   -4302.3544    -44.08616      36.6857      36.6857      36.6857            0            0            0   0.63332668 
257000 0.63332668440879702487 313.34968137571797797 1077.1567404725399228 843.13702485023395639 3454.9987179340300827 4298.1357427842604011 5073.7489999480503684
257000 0.63332668440879702487 313.34968137571797797 1077.1567404725399228 843.13702485023395639 3454.9987179340300827 4298.1357427842604011 5073.7489999480503684
  257000    49373.104    313.34968    1077.1567    3454.9987    843.13702    4298.1357     5073.749   -1116.5883    2923.2747   -2494.3024    1164.1732    1717.0692    456.19708            0    3337.4395   -4300.9889    -44.08616      36.6857      36.6857      36.6857            0            0            0   0.63332668 
258000 0.63332668440879602567 311.9808462321120146 77.391324487490493311 767.65397189269197042 3439.9059192260301643 4207.559891118719861 4263.2859846449300676
258000 0.63332668440879602567 311.9808462321120146 77.391324487490493311 767.65397189269197042 3439.9059192260301643 4207.559891118719861 4263.2859846449300676
  258000    49373.104    311.98085    77.391324    3439.9059    767.65397    4207.5599     4263.286   -1157.7994    2950.4031   -2510.5914    1177.9466    1657.0243    443.27454            0    3278.2454   -4303.1951    -44.08616      36.6857      36.6857      36.6857            0            0            0   0.63332668 
259000 0.63332668440879602567 308.91486271010398923 -871.12590586880196497 715.45331433722503789 3406.1003347070400196 4121.5536490442600552 3494.2941464446198552
259000 0.63332668440879602567 308.91486271010398923 -871.12590586880196497 715.45331433722503789 3406.1003347070400196 4121.5536490442600552 3494.2941464446198552
  259000    49373.104    308.91486   -871.12591    3406.1003    715.45331    4121.5536    3494.2941   -1139.4494     2923.558    -2513.981    1183.6583    1606.2069    439.56908            0    3229.4343   -4298.0897    -44.08616      36.6857      36.6857      36.6857            0            0            0   0.63332668 
260000 0.63332668440879602567 310.79354993421799236 998.14262928344999182 762.79324446582495511 3426.814770803529882 4189.608015269360294 4908.3266814803100715
260000 0.63332668440879602567 310.79354993421799236 998.14262928344999182 762.79324446582495511 3426.814770803529882 4189.608015269360294 4908.3266814803100715
  260000    49373.104    310.79355    998.14263    3426.8148    762.79324     4189.608    4908.3267   -1120.9828    2913.6672   -2509.5936    1170.8748    1646.7638    454.74817            0    3272.3868   -4302.2779    -44.08616      36.6857      36.6857      36.6857            0            0            0   0.63332668 
261000 0.63332668440879602567 304.70037794159298983 -230.37089880759600646 678.66812767518501914 3359.6313566374501534 4038.2994843126398337 3872.4195185970402235
261000 0.63332668440879602567 304.70037794159298983 -230.37089880759600646 678.66812767518501914 3359.6313566374501534 4038.2994843126398337 3872.4195185970402235
  261000    49373.104    304.70038    -230.3709    3359.6314    678.66813    4038.2995    3872.4195   -1139.0229    2923.7044   -2518.4419    1146.0968    1607.5977    443.41551            0      3197.11   -4303.1234    -44.08616      36.6857      36.6857      36.6857            0            0            0   0.63332668 
262000 0.63332668440879602567 310.00664735367200819 451.99495494748697411 738.98020021733100293 3418.1383700649298589 4157.1185702822704116 4482.5802844935396934
262000 0.63332668440879602567 310.00664735367200819 451.99495494748697411 738.98020021733100293 3418.1383700649298589 4157.1185702822704116 4482.5802844935396934
  262000    49373.104    310.00665    451.99495    3418.1384     738.9802    4157.1186    4482.5803   -1134.2026    2933.1292   -2501.8621    1176.1852    1618.4082    446.24892            0    3240.8423   -4300.7887    -44.08616      36.6857      36.6857      36.6857            0            0            0   0.63332668 
263000 0.63332668440879602567 309.58051805108499366 -697.17919473922597717 737.13493628653498035 3413.439861396770084 4150.5747976832999484 3648.5666815559297902
263000 0.63332668440879602567 309.58051805108499366 -697.17919473922597717 737.13493628653498035 3413.439861396770084 4150.5747976832999484 3648.5666815559297902
  263000    49373.104    309.58052   -697.17919    3413.4399    737.13494    4150.5748    3648.5667   -1132.7848    2909.3751   -2525.6893    1161.7016    1650.1588    450.96387            0    3262.8243   -4302.2796    -44.08616      36.6857      36.6857      36.6857            0            0            0   0.63332668 
264000 0.63332668440879602567 308.84565913161202388 -444.49525099086599766 614.88781716111395781 3405.3372949173799498 4020.2251120784899285 3700.1636052790099711
264000 0.63332668440879602567 308.84565913161202388 -444.49525099086599766 614.88781716111395781 3405.3372949173799498 4020.2251120784899285 3700.1636052790099711
  264000    49373.104    308.84566   -444.49525    3405.3373    614.88782    4020.2251    3700.1636   -1143.0537    2895.7956   -2549.2923     1147.509    1586.6273    430.04376            0    3164.1801   -4302.0342    -44.08616      36.6857      36.6857      36.6857            0            0            0   0.63332668 
265000 0.63332668440879702487 313.92950520914797607 -1873.3031226804300786 715.21068596871600676 3461.3918650160198922 4176.602550984730442 2827.7192529051399106
265000 0.63332668440879702487 313.92950520914797607 -1873.3031226804300786 715.21068596871600676 3461.3918650160198922 4176.602550984730442 2827.7192529051399106
  265000    49373.104    313.92951   -1873.3031    3461.3919    715.21069    4176.6026    2827.7193    -1127.987    2930.8846   -2496.8902    1138.7367    1637.4972    435.86695            0    3212.1009   -4299.7877    -44.08616      36.6857      36.6857      36.6857            0            0            0   0.63332668 
266000 0.63332668440879602567 304.14125462146597556 -108.82107334376600249 730.10220773549599471 3353.4664537541198115 4083.5686614896198989 4005.2113862919600251
266000 0.63332668440879602567 304.14125462146597556 -108.82107334376600249 730.10220773549599471 3353.4664537541198115 4083.5686614896198989 4005.2113862919600251
  266000    49373.104    304.14125   -108.82107    3353.4665    730.10221    4083.5687    4005.2114   -1131.9387    2932.3883   -2500.8658    1189.3597    1623.7614    417.84694            0     3230.968   -4301.3154    -44.08616      36.6857      36.6857      36.6857            0            0            0   0.63332668 
267000 0.63332668440879602567 310.13275715185898207 284.96520822734999001 705.54535817560201849 3419.5288587647901295 4125.0742169403902153 4330.2651469387601537
267000 0.63332668440879602567 310.13275715185898207 284.96520822734999001 705.54535817560201849 3419.5288587647901295 4125.0742169403902153 4330.2651469387601537
  267000    49373.104    310.13276    284.96521    3419.5289    705.54536    4125.0742    4330.2651   -1099.4602    2898.2264   -2503.1152    1107.7902    1681.3323    419.53796            0    3208.6605   -4301.8814    -44.08616      36.6857      36.6857      36.6857            0            0            0   0.63332668 
268000 0.63332668440879602567 310.61368354425502503 -1227.5523539176099348 752.1530791286160138 3424.8315610424901934 4176.9846401711101862 3293.0781075494601282
268000 0.63332668440879602567 310.61368354425502503 -1227.5523539176099348 752.1530791286160138 3424.8315610424901934 4176.9846401711101862 3293.0781075494601282
  268000    49373.104    310.61368   -1227.5524    3424.8316    752.15308    4176.9846    3293.0781   -1120.6413    2917.3006   -2505.8891    1153.8099    1674.9523    429.28009            0    3258.0422   -4302.5485    -44.08616      36.6857      36.6857      36.6857            0            0            0   0.63332668 
269000 0.63332668440879602567 307.72572615560102349 -798.330674882524022 702.87719452684098087 3392.9888955850401544 4095.8660901118801121 3521.0232359811398055
269000 0.63332668440879602567 307.72572615560102349 -798.330674882524022 702.87719452684098087 3392.9888955850401544 4095.8660901118801121 3521.0232359811398055
  269000    49373.104    307.72573   -798.33067    3392.9889    702.87719    4095.8661    3521.0232   -1141.7303     2909.167   -2536.1138    1142.6334    1671.0935    425.26401            0     3238.991   -4303.5505    -44.08616      36.6857      36.6857      36.6857            0            0            0   0.63332668 
270000 0.63332668440879602567 314.3111865598480108 -1624.2965304694000679 739.1986605762730278 3465.6002898388501308 4204.798950415120089 3035.214362340650041
270000 0.63332668440879602567 314.3111865598480108 -1624.2965304694000679 739.1986605762730278 3465.6002898388501308 4204.798950415120089 3035.214362340650041
  270000    49373.104    314.31119   -1624.2965    3465.6003    739.19866     4204.799    3035.2144    -1142.014    2903.3009   -2538.7909    1162.5493    1684.6876    430.75264            0    3277.9896   -4300.0779    -44.08616      36.6857      36.6857      36.6857            0            0            0   0.63332668 
271000 0.63332668440879702487 305.52943494385300482 -66.639074135358598028 658.15058797685298941 3368.7725527201500881 4026.9231406969997806 3978.9392703813100525
271000 0.63332668440879702487 305.52943494385300482 -66.639074135358598028 658.15058797685298941 3368.7725527201500881 4026.9231406969997806 3978.9392703813100525
  271000    49373.104    305.52943   -66.639074    3368.7726    658.15059    4026.9231    3978.9393   -1129.9142    2935.0883   -2494.6779    1088.1475    1636.9048    427.77621            0    3152.8285    -4299.852    -44.08616      36.6857      36.6857      36.6857            0            0            0   0.63332668 
272000 0.63332668440879602567 306.23763107583397414 -503.93358468879398515 705.82184924425803274 3376.5811348680499577 4082.4029841123001461 3719.5425439100399672
272000 0.63332668440879602567 306.23763107583397414 -503.93358468879398515 705.82184924425803274 3376.5811348680499577 4082.4029841123001461 3719.5425439100399672
  272000    49373.104    306.23763   -503.93358    3376.5811    705.82185     4082.403    3719.5425   -1103.3787    2898.2466   -2508.5974    1138.4811    1646.5096    429.42854            0    3214.4192   -4303.4654    -44.08616      36.6857      36.6857      36.6857            0            0            0   0.63332668 
273000 0.63332668440879702487 313.88723895646302253 985.40611617598301564 784.21463592196903392 3460.9258366218100491 4245.1404725437796515 4954.6881350883004416
273000 0.63332668440879702487 313.88723895646302253 985.40611617598301564 784.21463592196903392 3460.9258366218100491 4245.1404725437796515 4954.6881350883004416
  273000    49373.104    313.88724    985.40612    3460.9258    784.21464    4245.1405    4954.6881   -1087.8833    2932.5182   -2453.2588    1161.5064     1656.511    419.45604            0    3237.4734   -4297.8937    -44.08616      36.6857      36.6857      36.6857            0            0            0   0.63332668 
274000 0.63332668440879702487 307.04747726019201082 -546.58253446287699262 740.69041318213101022 3385.5105121579599654 4126.2009253400901798 3732.6308496632600509
274000 0.63332668440879702487 307.04747726019201082 -546.58253446287699262 740.69041318213101022 3385.5105121579599654 4126.2009253400901798 3732.6308496632600509
  274000    49373.104    307.04748   -546.58253    3385.5105    740.69041    4126.2009    3732.6308   -1118.2146    2917.7841   -2500.5448    1141.5212    1681.1727    418.54128            0    3241.2352   -4300.1143    -44.08616      36.6857      36.6857      36.6857            0            0            0   0.63332668 
275000 0.63332668440879602567 314.16923661631898312 -420.84367611952700372 670.71381173967404266 3464.0351474370800133 4134.7489591767498496 3831.7179126006899423
275000 0.63332668440879602567 314.16923661631898312 -420.84367611952700372 670.71381173967404266 3464.0351474370800133 4134.7489591767498496 3831.7179126006899423
  275000    49373.104    314.16924   -420.84368    3464.0351    670.71381     4134.749    3831.7179   -1131.3513    2932.6786   -2501.7932    1124.3127    1626.1647    422.02968            0    3172.5071   -4303.1206    -44.08616      36.6857      36.6857      36.6857            0            0            0   0.63332668 
276000 0.63332668440879602567 308.62090914738297442 -188.36413290132401244 704.47852143066302233 3402.859197911010142 4107.3377193416699811 3971.7049807039002189
276000 0.63332668440879602567 308.62090914738297442 -188.36413290132401244 704.47852143066302233 3402.859197911010142 4107.3377193416699811 3971.7049807039002189
  276000    49373.104    308.62091   -188.36413    3402.8592    704.47852    4107.3377     3971.705   -1148.3953    2943.8087     -2506.64    1126.8153    1643.1017    441.20158            0    3211.1186   -4302.0535    -44.08616      36.6857      36.6857      36.6857            0            0            0   0.63332668 
277000 0.63332668440879602567 307.83919502621301945 -1275.9392949304499325 812.78036903136398905 3394.2400052104499082 4207.0203742418098045 3288.272530682730121
277000 0.63332668440879602567 307.83919502621301945 -1275.9392949304499325 812.78036903136398905 3394.2400052104499082 4207.0203742418098045 3288.272530682730121
  277000    49373.104     307.8392   -1275.9393      3394.24    812.78037    4207.0204    3288.2725   -1093.1524    2958.2755   -2438.8818    1185.5309    1633.5785    432.55279            0    3251.6622   -4304.0049    -44.08616      36.6857      36.6857      36.6857            0            0            0   0.63332668 
278000 0.63332668440879602567 309.24141382750701723 -1672.1735924511299345 763.64227806296696599 3409.7008926747798796 4173.3431707377503699 2969.2844132208701922
278000 0.63332668440879602567 309.24141382750701723 -1672.1735924511299345 763.64227806296696599 3409.7008926747798796 4173.3431707377503699 2969.2844132208701922
  278000    49373.104    309.24141   -1672.1736    3409.7009    763.64228    4173.3432    2969.2844   -1121.0735    2939.2369   -2486.0447    1134.2916    1677.4801    437.91519            0    3249.6869   -4304.2081    -44.08616      36.6857      36.6857      36.6857            0            0            0   0.63332668 
279000 0.63332668440879602567 308.06415956331102279 -142.53723746803498784 744.28776586853598474 3396.7204678802800117 4141.0082337488101984 4038.373429670799851
279000 0.63332668440879602567 308.06415956331102279 -142.53723746803498784 744.28776586853598474 3396.7204678802800117 4141.0082337488101984 4038.373429670799851
  279000    49373.104    308.06416   -142.53724    3396.7205    744.28777    4141.0082    4038.3734   -1120.2407    2946.0996   -2473.6071     1148.053    1631.0133     438.8286            0    3217.8949    -4299.466    -44.08616      36.6857      36.6857      36.6857            0            0            0   0.63332668 
280000 0.63332668440879602567 312.23751034292598661 -403.93903549583097856 724.47635849239497929 3442.7359019147202162 4167.212260407120084 3876.3535030464399824
280000 0.63332668440879602567 312.23751034292598661 -403.93903549583097856 724.47635849239497929 3442.7359019147202162 4167.212260407120084 3876.3535030464399824
  280000    49373.104    312.23751   -403.93904    3442.7359    724.47636    4167.2123    3876.3535    -1114.005    2975.4472   -2442.5341    1126.6522    1633.4395    406.91884            0    3167.0105   -4303.9763    -44.08616      36.6857      36.6857      36.6857            0            0            0   0.63332668 
  280498    49373.104    317.48571   -757.73226    3500.6027    776.12849    4276.7312    3731.1214   -1130.1912    2959.5011   -2473.8898    1183.3379     1638.997    427.68341            0    3250.0183   -4303.1997    -44.08616      36.6857      36.6857      36.6857            0            0            0   0.63332668 
Loop time of 87.1461 on 48 procs for 30000 steps with 3700 atoms

Performance: 29.743 ns/day, 0.807 hours/ns, 344.250 timesteps/s
51.5% CPU use with 48 MPI tasks x 1 OpenMP threads

MPI task timing breakdown:
Section |  min time  |  avg time  |  max time  |%varavg| %total
---------------------------------------------------------------
Pair    | 2.1319     | 20.495     | 28.897     | 146.8 | 23.52
Bond    | 0.17597    | 1.5045     | 2.122      |  37.8 |  1.73
Kspace  | 13.16      | 21.547     | 40.019     | 140.1 | 24.73
Neigh   | 5.3612     | 5.8214     | 6.296      |  12.2 |  6.68
Comm    | 24.275     | 27.818     | 33.155     |  38.5 | 31.92
Output  | 0.1565     | 0.15679    | 0.15693    |   0.0 |  0.18
Modify  | 2.5636     | 6.2487     | 7.9648     |  52.2 |  7.17
Other   |            | 3.554      |            |       |  4.08

Nlocal:    77.0833 ave 111 max 5 min
Histogram: 2 1 2 2 1 3 5 16 13 3
Nghost:    3461.62 ave 3545 max 3374 min
Histogram: 3 2 5 5 8 2 16 3 1 3
Neighs:    27816.2 ave 45478 max 1320 min
Histogram: 2 3 1 0 7 5 12 11 5 2

Total # of neighbors = 1335176
Ave neighs/atom = 360.858
Ave special neighs/atom = 9.56757
Neighbor list builds = 3294
Dangerous builds = 0

write_data      restart.${NAME}.final.data
write_data      restart.acetone_octanol_50p.final.data
Ewald initialization ...
  using 12-bit tables for long-range coulomb (src/kspace.cpp:332)
  G vector (1/distance) = 0.168113
  estimated absolute RMS force accuracy = 0.0450476
  estimated relative force accuracy = 0.00013566
  KSpace vectors: actual max1d max3d = 128 4 364
                  kxmax kymax kzmax  = 4 4 4
Total wall time: 0:12:45
