
variable        infile index acetone.data   # The name of the (edited) data file

#>>>>>> Simulation settings <<<<<<<

units		 real		#angstroms = length -
atom_style	 full		#How the atoms are defined in the input data file
boundary        p p p           #periodic box in x, y and z
pair_style	 lj/cut/coul/long 14.0    #'lj/cut/coul/long
pair_modify     tail yes            #Tail corrections
pair_modify     mix arithmetic      #Lorentz-Berthelot pair interactions between dissimilar atom

special_bonds   lj/coul 0.0 0.0 0.5
kspace_style    ewald 0.0001
bond_style      harmonic
angle_style     harmonic
dihedral_style  opls


# inputs settings
variable   simulationTemp  index 310     #Simulation temperature
variable   simulationPress equal 0.987	 #Simulation pressure

# Output files frequencies
variable        dumpfreq   index 1000          #Output frequency of dump information to dump
variable        thermofreq index 1000          #Output frequency of property information to log
variable        printfreq  index 1000          #Output frequency of information to be printed
variable        restartfreq index 1000000      #Output frequency of restart files


# Simulation run times (equilibration and production)
variable        NVT_equib  index 100000       # Equilibration run length (in timesteps)
variable        NVT_prod   index 30000       # Simulation run length  (in timesteps)


# Output
variable    step        equal step
variable    density     equal density
variable    temp        equal temp
variable    press       equal press
variable    ke          equal ke
variable    pe          equal pe
variable    etotal      equal etotal
variable    enthalpy    equal enthalpy


# >>>>>>>>>>> Reading data, Neighbor list settings, energy minimization, assigning initial velocities & specifying thermodynamic property output style to log files <<<<<<<<<

read_data	${infile}
read_data	acetone.data
  orthogonal box = (0 0 0) to (40 40 40)
  3 by 4 by 4 MPI processor grid
  reading atoms ...
  2000 atoms
  scanning bonds ...
  1 = max bonds/atom
  scanning angles ...
  6 = max angles/atom
  scanning dihedrals ...
  12 = max dihedrals/atom
  reading bonds ...
  1800 bonds
  reading angles ...
  3000 angles
  reading dihedrals ...
  2400 dihedrals
  4 = max # of 1-2 neighbors
  6 = max # of 1-3 neighbors
  8 = max # of 1-4 neighbors
  9 = max # of special neighbors
  special bonds CPU = 0.0174795 secs
  read_data CPU = 0.0425433 secs
neighbor        1.0 bin
neigh_modify    delay 0 every 1 check yes page 1000000 one 20000
timestep        1.0

minimize        1e-4 1e-6 10000 100000        #Energy minimize before creating velocities
Ewald initialization ...
  using 12-bit tables for long-range coulomb (src/kspace.cpp:332)
  G vector (1/distance) = 0.141245
  estimated absolute RMS force accuracy = 0.0350128
  estimated relative force accuracy = 0.00010544
  KSpace vectors: actual max1d max3d = 128 4 364
                  kxmax kymax kzmax  = 4 4 4
Neighbor list info ...
  update every 1 steps, delay 0 steps, check yes
  max neighbors/atom: 20000, page size: 1000000
  master list distance cutoff = 15
  ghost atom cutoff = 15
  binsize = 7.5, bins = 6 6 6
  1 neighbor lists, perpetual/occasional/extra = 1 0 0
  (1) pair lj/cut/coul/long, perpetual
      attributes: half, newton on
      pair build: half/bin/newton
      stencil: half/bin/3d/newton
      bin: standard
Per MPI rank memory allocation (min/avg/max) = 23.61 | 23.7 | 24.1 Mbytes
Step Temp E_pair E_mol TotEng Press 
       0            0   -1046.0975    530.40915   -515.68835    4379.9809 
     416            0   -3249.4705    31.547883   -3217.9226   -309.47374 
Loop time of 2.24213 on 48 procs for 416 steps with 2000 atoms

39.1% CPU use with 48 MPI tasks x 1 OpenMP threads

Minimization stats:
  Stopping criterion = energy tolerance
  Energy initial, next-to-last, final = 
        -515.688349715     -3217.72365715     -3217.92261762
  Force two-norm initial, final = 1923.6 29.633
  Force max component initial, final = 616.051 5.8154
  Final line search alpha, max atom move = 0.0052304 0.0304168
  Iterations, force evaluations = 416 825

MPI task timing breakdown:
Section |  min time  |  avg time  |  max time  |%varavg| %total
---------------------------------------------------------------
Pair    | 0.030517   | 0.29386    | 0.98625    |  40.4 | 13.11
Bond    | 0.0044341  | 0.015944   | 0.033368   |   6.4 |  0.71
Kspace  | 0.26478    | 0.91887    | 1.1646     |  21.7 | 40.98
Neigh   | 0.030375   | 0.032858   | 0.035624   |   0.9 |  1.47
Comm    | 0.46642    | 0.55008    | 0.64209    |   5.3 | 24.53
Output  | 0          | 0          | 0          |   0.0 |  0.00
Modify  | 0          | 0          | 0          |   0.0 |  0.00
Other   |            | 0.4305     |            |       | 19.20

Nlocal:    41.6667 ave 112 max 8 min
Histogram: 9 8 8 6 8 3 1 1 3 1
Nghost:    2107.33 ave 2240 max 1894 min
Histogram: 2 7 7 0 0 2 1 11 7 11
Neighs:    10981.9 ave 46010 max 862 min
Histogram: 17 11 6 6 2 4 1 0 0 1

Total # of neighbors = 527132
Ave neighs/atom = 263.566
Ave special neighs/atom = 7.2
Neighbor list builds = 28
Dangerous builds = 0
#velocity	all create ${simulationTemp} 886874 mom yes rot yes dist gaussian

velocity        all create  ${simulationTemp} 317879265 units box
velocity        all create  310 317879265 units box
velocity        all zero linear units box

# The 'velocity' command line above assigns initial velocities to the atoms in our data file, see the LAMMPS 'velocity' command
# The number '886874' is the seed number which helps LAMMPS to consistently assign the same randomized velocities for the same simulation with the same seed number
# Changing that seed number for your simulation of a given system is one easy way to run an 'independent' simulation of the same system as taught in class
# You will need to do this for your homework

thermo_style    custom step vol temp press ke pe etotal enthalpy evdwl ecoul epair ebond eangle edihed eimp emol elong etail lx ly lz xy xz yz density
thermo          ${thermofreq}
thermo          1000

fix npt_density all npt temp ${simulationTemp} ${simulationTemp} 100 iso ${simulationPress} ${simulationPress} 1000
fix npt_density all npt temp 310 ${simulationTemp} 100 iso ${simulationPress} ${simulationPress} 1000
fix npt_density all npt temp 310 310 100 iso ${simulationPress} ${simulationPress} 1000
fix npt_density all npt temp 310 310 100 iso 0.987 ${simulationPress} 1000
fix npt_density all npt temp 310 310 100 iso 0.987 0.987 1000

run 50000
Ewald initialization ...
  using 12-bit tables for long-range coulomb (src/kspace.cpp:332)
  G vector (1/distance) = 0.141245
  estimated absolute RMS force accuracy = 0.0350128
  estimated relative force accuracy = 0.00010544
  KSpace vectors: actual max1d max3d = 128 4 364
                  kxmax kymax kzmax  = 4 4 4
Per MPI rank memory allocation (min/avg/max) = 22.48 | 22.62 | 22.98 Mbytes
Step Volume Temp Press KinEng PotEng TotEng Enthalpy E_vdwl E_coul E_pair E_bond E_angle E_dihed E_impro E_mol E_long E_tail Lx Ly Lz Xy Xz Yz Density 
     416        64000          310    1009.8813    1847.1782   -3217.9226   -1370.7444   -428.14717    -759.5357    301.62066   -3249.4705   0.95742567    22.789768    7.8006893            0    31.547883   -2791.5555   -7.4689984           40           40           40            0            0            0   0.30138497 
    1000    64667.233    329.41894   -1314.5619    1962.8886    -1725.645    237.24363   -1002.5266   -531.76498    464.70467   -2854.9755    348.36037    679.86883    101.10132            0    1129.3305   -2787.9152   -7.3919337    40.138527    40.138527    40.138527            0            0            0    0.2982753 
    2000    60654.312     301.1819   -221.67224    1794.6343   -1391.9607     402.6736    206.58657   -480.59609    478.97853   -2786.8939    582.58025     709.0049    103.34801            0    1394.9332   -2785.2763   -7.8809879     39.29047     39.29047     39.29047            0            0            0   0.31800935 
    3000    55855.136     309.6046   -123.79024    1844.8221   -1425.9366     418.8855    318.04722   -522.94281    487.02051   -2824.5581     532.2936    757.01468    109.31316            0    1398.6214   -2788.6358   -8.5581369    38.225605    38.225605    38.225605            0            0            0   0.34533329 
    4000    52724.752    316.92216   -8.1885963    1888.4248   -1432.2897    456.13516    449.83865   -511.82859    480.37904   -2816.4854     525.6987    752.45518    106.04181            0    1384.1957   -2785.0358   -9.0662522    37.497719    37.497719    37.497719            0            0            0   0.36583649 
    5000    48884.073    313.39819   -100.53725    1867.4268   -1437.6724    429.75436    358.07894   -547.46791     477.4257    -2859.198    533.90757    772.12064     115.4974            0    1421.5256   -2789.1558   -9.7785611    36.564176    36.564176    36.564176            0            0            0   0.39457919 
    6000     45984.23    317.63384   -149.49058    1892.6655    -1523.086    369.57953    269.32624   -599.91587    480.59851   -2906.6338    547.50167    717.52634     118.5198            0    1383.5478   -2787.3164   -10.395214    35.826384    35.826384    35.826384            0            0            0   0.41946202 
    7000    43989.897    301.24576    201.08763    1795.0148   -1524.0157    270.99917    400.00644   -592.13032     470.3727   -2911.1452    523.83798    749.78549     113.5061            0    1387.1296   -2789.3876   -10.866493    35.300781    35.300781    35.300781            0            0            0   0.43847882 
    8000    40720.118    307.80104   -684.33887    1834.0754   -1522.3206    311.75477   -94.647503   -603.40115    449.56895   -2942.5051    544.32554    754.44834    121.41061            0    1420.1845   -2788.6729    -11.73906     34.40353     34.40353     34.40353            0            0            0   0.47368817 
    9000    38084.987    317.95917    536.03957     1894.604   -1550.0154    344.58862    642.32133   -632.44072    455.85918   -2965.9785    539.02868    767.06809    109.86629            0    1415.9631   -2789.3969   -12.551295    33.644799    33.644799    33.644799            0            0            0   0.50646303 
   10000    36819.219    315.62641    73.712847     1880.704   -1591.2256    289.47837       329.06   -642.77676    454.12392   -2979.8816    510.37097    765.27204    113.01301            0     1388.656   -2791.2288   -12.982782    33.267859    33.267859    33.267859            0            0            0   0.52387418 
   11000    34625.186    308.63832   -199.56649    1839.0644   -1601.4103    237.65409    136.87844   -673.93108     460.9655    -2998.714    496.00079    777.49371    123.80921            0    1397.3037   -2785.7484   -13.805439    32.593478    32.593478    32.593478            0            0            0   0.55706959 
   12000    32549.605    306.49831    451.57228    1826.3129   -1672.9513    153.36153    367.72407   -700.70339    425.44981   -3064.7518    503.16346    779.06507    109.57196            0    1391.8005   -2789.4983   -14.685766    31.928749    31.928749    31.928749            0            0            0   0.59259208 
   13000    30730.376    310.99802    150.49263     1853.125   -1702.5583    150.56668    218.01311   -730.80972    443.42329    -3077.492     512.0585     750.1699    112.70526            0    1374.9337   -2790.1056   -15.555159    31.322467    31.322467    31.322467            0            0            0   0.62767335 
   14000        29390    299.44896   -349.03789    1784.3083    -1667.904    116.40435    -33.20132   -735.22969    438.57048   -3087.4219    515.46795    783.49457     120.5554            0    1419.5179   -2790.7627   -16.264576     30.86028     30.86028     30.86028            0            0            0   0.65629936 
   15000    28474.668    305.02055   -572.00063    1817.5074   -1785.0727    32.434727   -205.10217   -780.24978    435.92642   -3135.0048    496.81553     743.1332    109.98332            0     1349.932   -2790.6814   -16.787409    30.536521    30.536521    30.536521            0            0            0   0.67739641 
   16000    27380.022    301.79774   -765.53392    1798.3039   -1798.9558  -0.65186088   -306.33685   -803.37551    409.72505   -3183.0713    513.21471    754.46431    116.43658            0    1384.1156   -2789.4209   -17.458565    30.140094    30.140094    30.140094            0            0            0   0.70447855 
   17000    26790.086     311.3199     247.6165     1855.043   -1788.0431    66.999943    163.74518   -817.88545    396.62541   -3212.8762    541.62803     774.0122     109.1929            0    1424.8331   -2791.6162   -17.843015    29.922052    29.922052    29.922052            0            0            0   0.71999164 
   18000    26429.012    315.62817    145.78109    1880.7144   -1780.8232    99.891185    156.08105   -808.12365    408.39255   -3191.0053    512.90755    781.14895    116.12561            0    1410.1821   -2791.2742   -18.086786    29.787015    29.787015    29.787015            0            0            0   0.72982818 
   19000    26678.482    308.31689    952.64907    1837.1491   -1738.6957    98.453408    469.10849   -819.01962    406.56834   -3202.3296    539.22505    805.47014    118.93869            0    1463.6339   -2789.8783   -17.917657    29.880444    29.880444    29.880444            0            0            0   0.72300358 
   20000    26662.744    304.82872   -1240.3937    1816.3644   -1765.6614    50.702945   -431.62265   -814.05708    409.55484   -3194.7938    534.51697    774.39277    120.22262            0    1429.1324   -2790.2916   -17.928233    29.874567    29.874567    29.874567            0            0            0   0.72343033 
   21000    26032.272    302.98174   -551.20202    1805.3589   -1896.2479   -90.889032   -300.15508   -859.74999    411.33619   -3240.1229    506.43606    732.64702    104.79187            0    1343.8749   -2791.7091   -18.362435    29.637213    29.637213    29.637213            0            0            0     0.740951 
   22000      26985.9    313.34532   -29.836561    1867.1117   -1760.5067    106.60498    94.862452   -822.94016    410.32168   -3202.2978     541.4778    784.07439    116.23887            0    1441.7911   -2789.6793   -17.713543    29.994777    29.994777    29.994777            0            0            0   0.71476727 
   23000     25592.96     308.3067   -527.57852    1837.0884   -1821.1351    15.953289   -180.96385   -866.10627    406.41875   -3250.0642    516.58269     796.1993     116.1471            0    1428.9291   -2790.3767   -18.677632     29.46955     29.46955     29.46955            0            0            0   0.75366967 
   24000    25697.665    304.99639   -319.30501    1817.3635   -1853.4472   -36.083757     -155.751   -863.60634    388.24127   -3267.5295    524.80829    776.24055    113.03339            0    1414.0822   -2792.1644   -18.601531    29.509684    29.509684    29.509684            0            0            0   0.75059888 
   25000    26397.965    311.12767    742.23013    1853.8976   -1793.8184    60.079208    345.82834   -830.21727    402.12167   -3220.0035    541.02252    776.61299    108.54961            0    1426.1851   -2791.9079   -18.108059    29.775346    29.775346    29.775346            0            0            0   0.73068656 
   26000    25541.936    320.37181    -1091.568      1908.98   -1837.3913    71.588705    -335.0236   -867.70392    370.69803   -3288.6367    535.14836    809.06873    107.02828            0    1451.2454   -2791.6308   -18.714944    29.449953    29.449953    29.449953            0            0            0   0.75517525 
   27000    25439.833    315.98475    355.45931    1882.8391   -1866.7279      16.1112    147.99154    -885.4571    385.23158   -3291.8347    534.88167    774.75571    115.46934            0    1425.1067   -2791.6091   -18.790056    29.410659    29.410659    29.410659            0            0            0   0.75820615 
   28000     25244.34    314.01149    -1388.214    1871.0812   -1811.3511    59.730146   -451.35863   -892.89038    387.18249   -3298.0038    560.83824    813.05585    112.75859            0    1486.6527   -2792.2959   -18.935567    29.335129    29.335129    29.335129            0            0            0   0.76407772 
   29000    24326.889    305.42063    618.50362    1819.8914   -1848.6164   -28.724971    190.70942   -906.99602    386.24369   -3312.6495    530.68571     814.3952    118.95219            0    1464.0331   -2791.8971   -19.649693    28.975361    28.975361    28.975361            0            0            0   0.79289376 
   30000    25244.305    300.55834   -116.16346    1790.9188    -1870.726   -79.807244   -122.57425   -887.60505    387.16309   -3293.2998    528.67656    784.02154    109.87566            0    1422.5738   -2792.8578   -18.935593    29.335116    29.335116    29.335116            0            0            0   0.76407879 
   31000     25024.44    307.18846    -573.2104    1830.4252   -1871.2131   -40.787909   -249.98436   -890.11791    377.58209   -3304.1548    533.87756    787.15805    111.90604            0    1432.9417    -2791.619   -19.101962    29.249703    29.249703    29.249703            0            0            0     0.770792 
   32000    24829.789    307.35248   -45.790736    1831.4025   -1801.0252    30.377383    13.795779   -893.54586    380.92202   -3303.5676    565.28921    822.01514    115.23813            0    1502.5425   -2790.9438    -19.25171    29.173666    29.173666    29.173666            0            0            0   0.77683455 
   33000    24960.676    309.63358   -109.68796    1844.9948   -1836.3396     8.655256   -31.273999    -894.9064    387.93338   -3299.1075    542.38238    821.92861     98.45691            0    1462.7679   -2792.1344   -19.150759    29.224838    29.224838    29.224838            0            0            0   0.77276104 
   34000    24862.034    310.43667    847.19917    1849.7802   -1835.8322    13.947964     321.1316   -898.51595    392.89237   -3295.5446    572.42729    779.37501    107.91011            0    1459.7124    -2789.921   -19.226741    29.186289    29.186289    29.186289            0            0            0   0.77582703 
   35000    25001.884    308.06857   -248.42481    1835.6695   -1857.0185   -21.348957   -111.93131    -894.7484    378.89564    -3308.389    545.94357    795.43186    109.99511            0    1451.3705   -2792.5363   -19.119195    29.240912    29.240912    29.240912            0            0            0   0.77148737 
   36000    24709.665    310.17561     -644.225    1848.2246   -1800.2604    47.964222     -184.192   -895.26276    372.08731    -3315.028    581.71135    829.50028    103.55597            0    1514.7676   -2791.8525   -19.345301    29.126544    29.126544    29.126544            0            0            0   0.78061107 
   37000    24765.563    307.69225    541.61072    1833.4271   -1897.4448   -64.017678    131.60146   -918.33076     383.5468   -3326.0069    544.03246    772.36206    112.16755            0    1428.5621   -2791.2229   -19.301637     29.14849     29.14849     29.14849            0            0            0   0.77884917 
   38000    25090.006    310.28506   -1523.8878    1848.8768   -1795.5266    53.350128   -504.25868   -880.84659    382.96452   -3290.8024    587.58422    796.45255    111.23897            0    1495.2757   -2792.9203   -19.052044    29.275226    29.275226    29.275226            0            0            0   0.76877775 
   39000    24278.495    309.09889    2089.6312    1841.8088   -1911.9667   -70.157919    669.73229   -928.50133    379.37625   -3339.7446    547.09867    772.21537    108.46392            0     1427.778   -2790.6196   -19.688861    28.956134    28.956134    28.956134            0            0            0   0.79447422 
   40000    24822.532    301.92814   -546.23234    1799.0809   -1893.4923   -94.411433   -292.15365   -911.34811    376.73511   -3326.1894    538.14022    793.03981    101.51706            0    1432.6971   -2791.5764   -19.257338    29.170824    29.170824    29.170824            0            0            0   0.77706165 
   41000    24555.627    309.58419   -672.97393    1844.7005   -1811.8143    32.886179   -208.11832   -916.20993    390.90688   -3315.8554    591.82008    800.06712    112.15389            0    1504.0411   -2790.5524   -19.466654    29.065893    29.065893    29.065893            0            0            0   0.78550787 
   42000    24243.307     309.6711   -515.91785    1845.2184   -1883.7137   -38.495292   -220.90515   -935.32354    368.91319   -3359.4813    570.22398    799.25804     106.2856            0    1475.7676   -2793.0709   -19.717438    28.942139    28.942139    28.942139            0            0            0   0.79562734 
   43000    24402.724    316.80791   -1522.5339    1887.7441   -1882.8857    4.8584347   -536.99416   -933.63022    380.19788   -3346.2286    563.84845    791.17625    108.31824            0     1463.343   -2792.7963   -19.588629    29.005438    29.005438    29.005438            0            0            0   0.79042973 
   44000    24485.503    312.48802    1228.4054    1862.0034    -1876.149   -14.145613    424.51299   -933.29507    374.52096   -3349.4982     523.1805      839.988    110.18076            0    1473.3493   -2790.7241   -19.522404    29.038199    29.038199    29.038199            0            0            0   0.78775747 
   45000    24908.462     310.6649    1099.6874    1851.1401   -1779.2226    71.917476    471.39473    -901.1573    376.78757   -3315.9617    609.39956    814.84796    112.49158            0    1536.7391    -2791.592   -19.190904    29.204446    29.204446    29.204446            0            0            0   0.77438093 
   46000    25019.199    313.65176   -1199.3934    1868.9377   -1831.5567    37.381025   -400.25288    -892.3923    389.06598   -3294.2265    587.67986    762.85849    112.13148            0    1462.6698   -2790.9002   -19.105963    29.247661    29.247661    29.247661            0            0            0   0.77095346 
   47000    24438.599     312.4053    2426.3577    1861.5105   -1918.5588   -57.048355    807.73438   -923.84563    368.36876   -3348.0892    581.78875     745.0101    102.73154            0    1429.5304   -2792.6123   -19.559873    29.019645    29.019645    29.019645            0            0            0    0.7892694 
   48000    25070.441    306.17474   -936.98972    1824.3849   -1866.9644   -42.579505   -385.16793   -903.51296    374.80473   -3320.7748    567.60613    781.33379    104.87047            0    1453.8104   -2792.0665   -19.066912    29.267614    29.267614    29.267614            0            0            0   0.76937769 
   49000    25097.032    312.43142   -994.17672    1861.6661   -1855.3625    6.3036699    -357.5794   -895.00905    379.11531   -3308.0667    563.64509     783.4691    105.59007            0    1452.7043    -2792.173    -19.04671    29.277958    29.277958    29.277958            0            0            0   0.76856251 
   50000    25049.002    322.62978    579.17338    1922.4345   -1819.5602    102.87426     314.4544   -889.27969    381.77114   -3299.0266    560.23736    809.09318     110.1358            0    1479.4663    -2791.518   -19.083232    29.259269    29.259269    29.259269            0            0            0    0.7700362 
   50416    25038.507    306.38965    313.51899    1825.6654   -1840.0621   -14.396714    100.08817   -883.65946    375.20188   -3301.8476    573.41391     768.3134    120.05816            0    1461.7855     -2793.39    -19.09123    29.255182    29.255182    29.255182            0            0            0   0.77035897 
Loop time of 139.553 on 48 procs for 50000 steps with 2000 atoms

Performance: 30.956 ns/day, 0.775 hours/ns, 358.287 timesteps/s
46.1% CPU use with 48 MPI tasks x 1 OpenMP threads

MPI task timing breakdown:
Section |  min time  |  avg time  |  max time  |%varavg| %total
---------------------------------------------------------------
Pair    | 21.418     | 27.153     | 33.091     |  51.5 | 19.46
Bond    | 0.79905    | 1.0538     | 1.2833     |  10.8 |  0.76
Kspace  | 19.253     | 27.909     | 35.596     |  74.8 | 20.00
Neigh   | 6.4021     | 7.1441     | 7.8055     |  17.9 |  5.12
Comm    | 41.292     | 47.213     | 54.799     |  49.1 | 33.83
Output  | 0.059571   | 0.060484   | 0.06934    |   0.5 |  0.04
Modify  | 19.621     | 22.913     | 25.941     |  36.0 | 16.42
Other   |            | 6.107      |            |       |  4.38

Nlocal:    41.6667 ave 54 max 27 min
Histogram: 1 2 2 2 14 7 12 5 1 2
Nghost:    4381.08 ave 4451 max 4296 min
Histogram: 1 2 6 2 5 13 7 4 5 3
Neighs:    23516.7 ave 29902 max 15033 min
Histogram: 2 1 5 4 4 11 6 4 5 6

Total # of neighbors = 1128801
Ave neighs/atom = 564.4
Ave special neighs/atom = 7.2
Neighbor list builds = 5338
Dangerous builds = 0

unfix npt_density

fix reshape_box all deform 1 x final 0.0 36.6857 y final 0.0 36.6857 z final 0.0 36.6857 units box

run 100000
Ewald initialization ...
  using 12-bit tables for long-range coulomb (src/kspace.cpp:332)
  G vector (1/distance) = 0.14948
  estimated absolute RMS force accuracy = 0.0416219
  estimated relative force accuracy = 0.000125343
  KSpace vectors: actual max1d max3d = 61 3 171
                  kxmax kymax kzmax  = 3 3 3
Per MPI rank memory allocation (min/avg/max) = 21.04 | 21.42 | 21.54 Mbytes
Step Volume Temp Press KinEng PotEng TotEng Enthalpy E_vdwl E_coul E_pair E_bond E_angle E_dihed E_impro E_mol E_long E_tail Lx Ly Lz Xy Xz Yz Density 
   50416    25038.507    306.38965    313.02137    1825.6654   -1840.2113   -14.545942    99.757236   -883.65946    537.51156   -3301.9968    573.41391     768.3134    120.05816            0    1461.7855   -2955.8489    -19.09123    29.255182    29.255182    29.255182            0            0            0   0.77035897 
   51000    25150.091    306.38965   -2354.4866    1825.6654   -1833.2816   -7.6162073   -871.21429   -884.58837    540.93687   -3299.4894    577.83622     768.3134    120.05816            0    1466.2078   -2955.8379   -19.006528    29.298576    29.298576    29.298576            0            0            0   0.76694109 
   52000    25341.929    306.38965   -6886.5578    1825.6654   -1811.3341     14.33133   -2530.8443   -885.80707    546.78023   -3294.8458    595.14014     768.3134    120.05816            0    1483.5117   -2955.8189   -18.862649    29.372882    29.372882    29.372882            0            0            0   0.76113536 
   53000     25534.74    306.38965   -11356.134    1825.6654   -1775.7963    49.869125   -4179.1322   -886.57093    553.48037   -3288.8905    624.72266     768.3134    120.05816            0    1513.0942   -2955.7999   -18.720218    29.447187    29.447187    29.447187            0            0            0   0.75538809 
   54000    25728.526    306.38965   -15778.656    1825.6654   -1728.2025    97.462903   -5823.0699   -886.89782    559.52089   -3283.1578    666.58377     768.3134    120.05816            0    1554.9553   -2955.7809   -18.579218    29.521492    29.521492    29.521492            0            0            0   0.74969853 
   55000     25923.29    306.38965   -20152.423    1825.6654   -1668.3044    157.36097   -7461.5566   -886.81953     565.1819   -3277.3994    720.72346     768.3134    120.05816            0     1609.095   -2955.7618   -18.439631    29.595797    29.595797    29.595797            0            0            0   0.74406596 
   56000    26119.035    306.38965    -24472.55    1825.6654   -1595.5018     230.1636   -9091.9041   -886.35152    571.07912   -3271.0151    787.14175     768.3134    120.05816            0    1675.5133   -2955.7427   -18.301438    29.670102    29.670102    29.670102            0            0            0   0.73848968 
   57000    26315.763    306.38965   -28744.735    1825.6654   -1510.3263    315.33907   -10716.557   -885.51486    576.70191   -3264.5365    865.83863     768.3134    120.05816            0    1754.2102   -2955.7236   -18.164622    29.744407    29.744407    29.744407            0            0            0   0.73296898 
   58000    26513.476    306.38965    -32969.25    1825.6654   -1412.7335    412.93187   -12335.349   -884.32327    582.10846   -3257.9192     956.8141     768.3134    120.05816            0    1845.1857   -2955.7044   -18.029167    29.818713    29.818713    29.818713            0            0            0   0.72750318 
   59000    26712.177    306.38965   -37147.583    1825.6654   -1302.8186    522.84681   -13948.726   -882.80654    587.23339   -3251.2583    1060.0682     768.3134    120.05816            0    1948.4397   -2955.6852   -17.895056    29.893018    29.893018    29.893018            0            0            0   0.72209158 
   60000    26911.868    306.38965   -41269.431    1825.6654    -1179.366    646.29937   -15551.209   -880.97612    593.30363   -3243.3384    1175.6008     768.3134    120.05816            0    2063.9724   -2955.6659   -17.762271    29.967323    29.967323    29.967323            0            0            0   0.71673352 
   61000    27112.552    306.38965   -45345.544    1825.6654   -1043.4825    782.18285   -17147.843   -878.84149    599.22196   -3235.2662    1303.4121     768.3134    120.05816            0    2191.7836   -2955.6466   -17.630797    30.041628    30.041628    30.041628            0            0            0   0.71142834 
   62000    27314.231    306.38965   -49375.664    1825.6654   -895.07325    930.59213   -18738.206   -876.43021    605.11081   -3226.9467    1443.5019     768.3134    120.05816            0    2331.8735   -2955.6273   -17.500617    30.115933    30.115933    30.115933            0            0            0   0.70617539 
   63000    27516.908    306.38965   -53362.905    1825.6654   -734.41918    1091.2462   -20323.602   -873.75729    610.70419   -3218.6611    1595.8703     768.3134    120.05816            0    2484.2419    -2955.608   -17.371715    30.190239    30.190239    30.190239            0            0            0   0.70097403 
   64000    27720.585    306.38965   -57301.205    1825.6654   -560.76244    1264.9029   -21900.616   -870.83438    616.77164   -3209.6513    1760.5173     768.3134    120.05816            0    2648.8889   -2955.5886   -17.244077    30.264544    30.264544    30.264544            0            0            0   0.69582363 
   65000    27925.265    306.38965    -61200.71    1825.6654   -374.87435     1450.791   -23473.892   -867.67444    622.39217   -3200.6889    1937.4429     768.3134    120.05816            0    2825.8145   -2955.4066   -17.117686    30.338849    30.338849    30.338849            0            0            0   0.69072356 
   66000    28130.949    306.38965   -65053.564    1825.6654   -176.41297    1649.2524    -25039.69   -864.29245     628.2439   -3191.4317    2126.6471     768.3134    120.05816            0    3015.0187   -2955.3831   -16.992526    30.413154    30.413154    30.413154            0            0            0    0.6856732 
   67000    28337.641    306.38965   -68867.118    1825.6654    34.144817    1859.8102   -26601.278   -860.70619    633.70909   -3182.3567    2328.1299     768.3134    120.05816            0    3216.5015   -2955.3596   -16.868585    30.487459    30.487459    30.487459            0            0            0   0.68067197 
   68000    28545.343    306.38965   -72642.327    1825.6654    256.75223    2082.4176   -28158.914   -856.91609    638.74137   -3173.5106    2541.8913     768.3134    120.05816            0    3430.2629   -2955.3359   -16.745845    30.561764    30.561764    30.561764            0            0            0   0.67571925 
   69000    28754.058    306.38965   -76367.159    1825.6654    492.88994    2318.5553   -29705.894   -852.93685    644.83612   -3163.4129    2767.9313     768.3134    120.05816            0    3656.3028   -2955.3122   -16.624294     30.63607     30.63607     30.63607            0            0            0   0.67081447 
   70000    28963.787    306.38965   -80056.746    1825.6654    740.83367    2566.4991   -31250.041   -848.78727    650.28787   -3153.7877    3006.2498     768.3134    120.05816            0    3894.6214   -2955.2883   -16.503915    30.710375    30.710375    30.710375            0            0            0   0.66595704 
   71000    29174.534    306.38965   -83704.622    1825.6654    1001.4161    2827.0815   -32787.616   -844.46996    655.93193   -3143.8024     3256.847     768.3134    120.05816            0    4145.2186   -2955.2644   -16.384697     30.78468     30.78468     30.78468            0            0            0    0.6611464 
   72000    29386.301    306.38965   -87315.585    1825.6654     1274.117    3099.7824   -34320.975   -840.00791    661.27098   -3133.9773    3519.7227     768.3134    120.05816            0    4408.0943   -2955.2403   -16.266624    30.858985    30.858985    30.858985            0            0            0   0.65638197 
   73000     29599.09    306.38965   -90881.102    1825.6654    1560.0369    3385.7023   -35845.158    -835.4015    667.40602   -3123.2117    3794.8771     768.3134    120.05816            0    4683.2486   -2955.2162   -16.149682     30.93329     30.93329     30.93329            0            0            0   0.65166322 
   74000    29812.903    306.38965   -94411.925    1825.6654    1857.9329    3683.5982   -37365.821   -830.65808    673.10137   -3112.7487      4082.31     768.3134    120.05816            0    4970.6815    -2955.192   -16.033859    31.007596    31.007596    31.007596            0            0            0   0.64698959 
   75000    30027.744    306.38965   -97903.064    1825.6654     2168.471    3994.1363    -38879.95   -825.79259    679.03814   -3101.9221    4382.0215     768.3134    120.05816            0    5270.3931   -2955.1677   -15.919141    31.081901    31.081901    31.081901            0            0            0   0.64236055 
   76000    30243.615    306.38965   -101360.71    1825.6654    2490.9472    4316.6126   -40390.767   -820.80659    684.51383    -3091.436    4694.0116     768.3134    120.05816            0    5582.3832   -2955.1432   -15.805515    31.156206    31.156206    31.156206            0            0            0   0.63777556 
   77000    30460.517    306.38965   -104782.32    1825.6654    2825.7283    4651.3936   -41896.623   -815.71158    689.90669   -3080.9236    5018.2803     768.3134    120.05816            0    5906.6519   -2955.1187   -15.692967    31.230511    31.230511    31.230511            0            0            0    0.6332341 
   78000    30678.454    306.38965   -108168.61    1825.6654    3172.7794    4998.4448   -43397.681   -810.52318    695.19756   -3070.4197    5354.8276     768.3134    120.05816            0    6243.1992   -2955.0941   -15.581486    31.304816    31.304816    31.304816            0            0            0   0.62873565 
   79000    30897.429    306.38965    -111519.4    1825.6654    3532.1831    5357.8484    -44893.61   -805.23289    700.46033    -3059.842    5703.6535     768.3134    120.05816            0     6592.025   -2955.0694   -15.471058    31.379121    31.379121    31.379121            0            0            0   0.62427972 
   80000    31117.442    306.38965   -114832.52    1825.6654     3904.269    5729.9344   -46382.898   -799.86538    706.04954   -3048.8605    6064.7579     768.3134    120.05816            0    6953.1295   -2955.0446   -15.361671    31.453427    31.453427    31.453427            0            0            0   0.61986579 
   81000    31338.498    306.38965   -118111.54    1825.6654    4288.6414    6114.3067   -47867.372   -794.41475    711.56328   -3037.8712     6438.141     768.3134    120.05816            0    7326.5126   -2955.0197   -15.253312    31.527732    31.527732    31.527732            0            0            0   0.61549338 
   82000    31560.598    306.38965   -121357.31    1825.6654    4685.2391    6510.9045   -49347.309   -788.89809    716.95771   -3026.9351    6823.8026     768.3134    120.05816            0    7712.1742   -2954.9947   -15.145971    31.602037    31.602037    31.602037            0            0            0   0.61116199 
   83000    31783.746    306.38965   -124568.83    1825.6654    5094.2495    6919.9149   -50821.888   -783.31251    722.41726   -3015.8649    7221.7429     768.3134    120.05816            0    8110.1144   -2954.9697   -15.039634    31.676342    31.676342    31.676342            0            0            0   0.60687115 
   84000    32007.942    306.38965   -127748.77    1825.6654    5515.3734    7341.0388    -52292.47   -777.67091    727.65552   -3004.9599    7631.9617     768.3134    120.05816            0    8520.3333   -2954.9445    -14.93429    31.750647    31.750647    31.750647            0            0            0   0.60262038 
   85000     32233.19    306.38965   -130896.26    1825.6654    5948.7762    7774.4416   -53758.322   -771.97359    732.83837   -2994.0545    8054.4591     768.3134    120.05816            0    8942.8307   -2954.9192   -14.829928    31.824952    31.824952    31.824952            0            0            0   0.59840922 
   86000    32459.493    306.38965   -134010.48    1825.6654    6394.6206    8220.2859   -55218.724   -766.22574    738.13348   -2982.9862    8489.2352     768.3134    120.05816            0    9377.6067   -2954.8939   -14.726536    31.899258    31.899258    31.899258            0            0            0    0.5942372 
   87000    32686.852    306.38965   -137092.98    1825.6654    6852.7535    8678.4188    -56674.38   -760.43256    743.39316   -2971.9079    8936.2898     768.3134    120.05816            0    9824.6613   -2954.8685   -14.624103    31.973563    31.973563    31.973563            0            0            0   0.59010388 
   88000    32915.271    306.38965   -140148.69    1825.6654    7322.5541    9148.2195   -58128.121    -754.6019    748.00445   -2961.4404     9395.623     768.3134    120.05816            0    10283.995   -2954.8429   -14.522618    32.047868    32.047868    32.047868            0            0            0    0.5860088 
   89000    33144.751    306.38965    -143171.9    1825.6654    7804.8425    9630.5079    -59576.24   -748.73829     752.7918   -2950.7638    9867.2347     768.3134    120.05816            0    10755.606   -2954.8173   -14.422069    32.122173    32.122173    32.122173            0            0            0   0.58195152 
   90000    33375.295    306.38965   -146160.95    1825.6654    8299.9024    10125.568   -61017.464   -742.84063    758.03791   -2939.5943    10351.125     768.3134    120.05816            0    11239.497   -2954.7916   -14.322447    32.196478    32.196478    32.196478            0            0            0   0.57793161 
   91000    33606.906    306.38965   -149122.69    1825.6654    8806.8421    10632.507   -62455.843   -736.91844    762.86068   -2928.8236    10847.294     768.3134    120.05816            0    11735.666   -2954.7658    -14.22374    32.270784    32.270784    32.270784            0            0            0   0.57394864 
   92000    33839.586    306.38965   -152053.69    1825.6654    9326.1827    11151.848   -63889.029    -730.9711    767.78049   -2917.9305    11355.742     768.3134    120.05816            0    12244.113   -2954.7399   -14.125938    32.345089    32.345089    32.345089            0            0            0   0.57000219 
   93000    34073.337    306.38965   -154956.91    1825.6654    9857.5591    11683.225   -65318.686   -725.00698     772.4407   -2907.2802    11876.468     768.3134    120.05816            0    12764.839   -2954.7139   -14.029031    32.419394    32.419394    32.419394            0            0            0   0.56609184 
   94000    34308.163    306.38965   -157829.53    1825.6654    10401.412    12227.078   -66742.829   -719.02644    777.28258   -2896.4317    12409.473     768.3134    120.05816            0    13297.844   -2954.6879   -13.933008    32.493699    32.493699    32.493699            0            0            0   0.56221717 
   95000    34544.065    306.38965   -160672.49    1825.6654    10957.661    12783.327   -68161.827   -713.03643    782.23216    -2885.466    12954.756     768.3134    120.05816            0    13843.127   -2954.6617   -13.837859    32.568004    32.568004    32.568004            0            0            0   0.55837778 
   96000    34781.045    306.38965   -163488.54    1825.6654    11525.958    13351.623   -69577.266   -707.04432    786.94819   -2874.7316    13512.318     768.3134    120.05816            0    14400.689   -2954.6355   -13.743575    32.642309    32.642309    32.642309            0            0            0   0.55457327 
   97000    35019.108    306.38965   -166273.97    1825.6654    12106.886    13932.552   -70986.519   -701.04116    792.00687   -2863.6434    14082.158     768.3134    120.05816            0     14970.53   -2954.6092   -13.650145    32.716615    32.716615    32.716615            0            0            0   0.55080325 
   98000    35258.254    306.38965   -169031.87    1825.6654    12700.044     14525.71   -72391.402    -695.0428    797.02109   -2852.6045    14664.277     768.3134    120.05816            0    15552.649   -2954.5827    -13.55756     32.79092     32.79092     32.79092            0            0            0   0.54706732 
   99000    35498.486    306.38965   -171761.18    1825.6654    13305.635    15131.301    -73791.01   -689.04513    802.19021   -2841.4112    15258.675     768.3134    120.05816            0    16147.047   -2954.5563   -13.465811    32.865225    32.865225    32.865225            0            0            0    0.5433651 
  100000    35739.807    306.38965   -174465.08    1825.6654     13923.24    15748.906   -75187.251   -683.05288    807.10001   -2830.4825    15865.351     768.3134    120.05816            0    16753.723   -2954.5297   -13.374888     32.93953     32.93953     32.93953            0            0            0   0.53969621 
  101000    35982.219    306.38965   -177145.51    1825.6654    14552.612    16378.278   -76581.267   -677.06353    811.50091   -2820.0656    16484.306     768.3134    120.05816            0    17372.678    -2954.503   -13.284781    33.013835    33.013835    33.013835            0            0            0   0.53606027 
  102000    36225.725    306.38965   -179797.85    1825.6654    15194.476    17020.141   -77969.768   -671.08576    816.12638   -2809.4356     17115.54     768.3134    120.05816            0    18003.911   -2954.4763   -13.195482    33.088141    33.088141    33.088141            0            0            0   0.53245693 
  103000    36470.327    306.38965   -182422.51    1825.6654    15848.819    17674.484    -79352.82   -665.11903    820.96379   -2798.6047    17759.052     768.3134    120.05816            0    18647.423   -2954.4494   -13.106982    33.162446    33.162446    33.162446            0            0            0    0.5288858 
  104000    36716.027    306.38965   -185021.76    1825.6654    16515.342    18341.007   -80731.782   -659.16957    825.71993   -2787.8721    18414.842     768.3134    120.05816            0    19303.214   -2954.4225   -13.019271    33.236751    33.236751    33.236751            0            0            0   0.52534654 
  105000    36962.829    306.38965   -187595.88    1825.6654    17194.052    19019.718   -82106.646   -653.22925    830.39392   -2777.2308    19082.912     768.3134    120.05816            0    19971.283   -2954.3955   -12.932341    33.311056    33.311056    33.311056            0            0            0   0.52183879 
  106000    37210.734    306.38965   -190146.55    1825.6654    17884.729    19710.395   -83478.412   -647.30921    834.77582   -2766.9018    19763.259     768.3134    120.05816            0    20651.631   -2954.3684   -12.846183    33.385361    33.385361    33.385361            0            0            0    0.5183622 
  107000    37459.745    306.38965   -192669.39    1825.6654    18588.089    20413.755   -84843.839   -641.40716    839.58023   -2756.1682    20455.886     768.3134    120.05816            0    21344.257   -2954.3413   -12.760789    33.459666    33.459666    33.459666            0            0            0   0.51491642 
  108000    37709.865    306.38965   -195170.95    1825.6654    19303.164    21128.829   -86207.328   -635.52457    843.84022   -2745.9984    21160.791     768.3134    120.05816            0    22049.162    -2954.314    -12.67615    33.533972    33.533972    33.533972            0            0            0   0.51150112 
  109000    37961.095    306.38965   -197646.25    1825.6654    20030.764     21856.43   -87565.205   -629.66816    848.37298   -2735.5819    21877.975     768.3134    120.05816            0    22766.346   -2954.2867   -12.592258    33.608277    33.608277    33.608277            0            0            0   0.50811595 
  110000    38213.439    306.38965   -200098.63    1825.6654    20770.412    22596.078   -88919.651   -623.83242    852.69557   -2725.3961    22607.437     768.3134    120.05816            0    23495.808   -2954.2593   -12.509104    33.682582    33.682582    33.682582            0            0            0   0.50476059 
  111000    38466.899    306.38965   -202527.03    1825.6654    21522.315     23347.98   -90269.735   -618.02167    857.01911   -2715.2344    23349.177     768.3134    120.05816            0    24237.549   -2954.2318   -12.426682    33.756887    33.756887    33.756887            0            0            0   0.50143471 
  112000    38721.477    306.38965   -204928.88    1825.6654     22286.92    24112.585    -91613.42   -612.24088    861.79672   -2704.6484    24103.197     768.3134    120.05816            0    24991.568   -2954.2042   -12.344981    33.831192    33.831192    33.831192            0            0            0   0.49813798 
  113000    38977.175    306.38965   -207308.33    1825.6654    23063.613    24889.279   -92953.506   -606.48629    866.40968   -2694.2532    24869.495     768.3134    120.05816            0    25757.866   -2954.1766   -12.263995    33.905497    33.905497    33.905497            0            0            0   0.49487009 
  114000    39233.997    306.38965   -209664.08    1825.6654     23852.64    25678.306   -94288.881   -600.76226     871.1084   -2683.8027    25648.071     768.3134    120.05816            0    26536.443   -2954.1489   -12.183717    33.979803    33.979803    33.979803            0            0            0   0.49163072 
  115000    39491.945    306.38965   -211997.58    1825.6654    24653.805     26479.47   -95620.434   -595.07438     875.7024   -2673.4931    26438.927     768.3134    120.05816            0    27327.298   -2954.1211   -12.104137    34.054108    34.054108    34.054108            0            0            0   0.48841956 
  116000     39751.02    306.38965   -214309.19    1825.6654    25467.094    27292.759   -96948.247   -589.41491    880.17031   -2663.3378     27242.06     768.3134    120.05816            0    28130.432   -2954.0932   -12.025249    34.128413    34.128413    34.128413            0            0            0    0.4852363 
  117000    40011.227    306.38965   -216598.66    1825.6654    26292.581    28118.246   -98271.989   -583.78578    884.58749   -2653.2636    28057.473     768.3134    120.05816            0    28945.844   -2954.0653   -11.947044    34.202718    34.202718    34.202718            0            0            0   0.48208065 
  118000    40272.566    306.38965   -218863.42    1825.6654    27130.735      28956.4   -99589.544   -578.18449    889.42127   -2642.8005    28885.164     768.3134    120.05816            0    29773.535   -2954.0373   -11.869517    34.277023    34.277023    34.277023            0            0            0    0.4789523 
  119000    40535.041    306.38965   -221107.75    1825.6654    27980.883    29806.548   -100903.95   -572.62391    894.01112   -2632.6219    29725.133     768.3134    120.05816            0    30613.505   -2954.0092   -11.792659    34.351329    34.351329    34.351329            0            0            0   0.47585096 
  120000    40798.654    306.38965   -223332.97    1825.6654    28842.839    30668.504   -102216.07   -567.09703      898.164    -2622.914    30577.381     768.3134    120.05816            0    31465.753    -2953.981   -11.716463    34.425634    34.425634    34.425634            0            0            0   0.47277634 
  121000    41063.407    306.38965   -225533.29    1825.6654    29717.616    31543.282   -103521.31   -561.60546    902.89503   -2612.6632    31441.908     768.3134    120.05816            0    32330.279   -2953.9527   -11.640922    34.499939    34.499939    34.499939            0            0            0   0.46972815 
  122000    41329.303    306.38965   -227713.91    1825.6654    30604.378    32430.043   -104823.49   -556.14621    907.36388   -2602.7068    32318.713     768.3134    120.05816            0    33207.085   -2953.9244   -11.566029    34.574244    34.574244    34.574244            0            0            0   0.46670611 
  123000    41596.344    306.38965   -229873.75    1825.6654    31503.339    33329.004   -106121.61   -550.72775    911.79415   -2592.8296    33207.797     768.3134    120.05816            0    34096.169    -2953.896   -11.491777    34.648549    34.648549    34.648549            0            0            0   0.46370993 
  124000    41864.534    306.38965   -232012.64    1825.6654    32414.566    34240.232   -107415.39     -545.345    916.24803   -2582.9645    34109.159     768.3134    120.05816            0    34997.531   -2953.8676   -11.418159    34.722854    34.722854    34.722854            0            0            0   0.46073935 
  125000    42133.873    306.38965   -234129.96    1825.6654     33338.21    35163.875   -108704.14   -540.00323    920.88025    -2572.962    35022.801     768.3134    120.05816            0    35911.172    -2953.839   -11.345169     34.79716     34.79716     34.79716            0            0            0   0.45779409 
  126000    42404.366    306.38965   -236229.18    1825.6654    34273.698    36099.363   -109990.48   -534.69934    925.11578    -2563.394     35948.72     768.3134    120.05816            0    36837.092   -2953.8104   -11.272799    34.871465    34.871465    34.871465            0            0            0   0.45487387 
  127000    42676.013    306.38965      -238307    1825.6654    35221.647    37047.312    -111271.6   -529.43294    929.57151   -2553.6432    36886.918     768.3134    120.05816            0     37775.29   -2953.7818   -11.201044     34.94577     34.94577     34.94577            0            0            0   0.45197845 
  128000    42948.818    306.38965   -240365.51    1825.6654    36181.723    38007.388   -112549.03   -524.20804    933.91731   -2544.0438    37837.395     768.3134    120.05816            0    38725.767    -2953.753   -11.129896    35.020075    35.020075    35.020075            0            0            0   0.44910754 
  129000    43222.784    306.38965   -242403.55    1825.6654     37154.17    38979.835   -113821.66   -519.02407    938.39568   -2534.3526    38800.151     768.3134    120.05816            0    39688.522   -2953.7242    -11.05935     35.09438     35.09438     35.09438            0            0            0   0.44626089 
  130000    43497.912    306.38965   -244424.67    1825.6654    38138.388    39964.053   -115092.22   -513.88177    942.40862   -2525.1685    39775.185     768.3134    120.05816            0    40663.556   -2953.6953   -10.989399    35.168685    35.168685    35.168685            0            0            0   0.44343826 
  131000    43774.205    306.38965   -246427.61    1825.6654    39134.635      40960.3   -116359.55   -508.77572    946.20841   -2516.2337    40762.497     768.3134    120.05816            0    41650.869   -2953.6664   -10.920036    35.242991    35.242991    35.242991            0            0            0   0.44063937 
  132000    44051.665    306.38965   -248410.12    1825.6654    40143.355     41969.02   -117621.65   -503.70942    950.24159   -2507.1052    41762.088     768.3134    120.05816            0     42650.46   -2953.6374   -10.851256    35.317296    35.317296    35.317296            0            0            0   0.43786399 
  133000    44330.296    306.38965   -250372.13    1825.6654    41164.593    42990.259    -118878.3   -498.68816    954.56013   -2497.7364    42773.958     768.3134    120.05816            0     43662.33   -2953.6083   -10.783052    35.391601    35.391601    35.391601            0            0            0   0.43511188 
  134000    44610.099    306.38965   -252315.09    1825.6654    42198.126    44023.791   -120130.52   -493.70663    958.93336   -2488.3524    43798.107     768.3134    120.05816            0    44686.478   -2953.5792   -10.715419    35.465906    35.465906    35.465906            0            0            0   0.43238277 
  135000    44891.076    306.38965   -254240.79    1825.6654    43243.659    45069.325   -121379.66    -488.7674    963.07163   -2479.2457    44834.534     768.3134    120.05816            0    45722.905     -2953.55    -10.64835    35.540211    35.540211    35.540211            0            0            0   0.42967644 
  136000    45173.232    306.38965   -256150.08    1825.6654    44301.065    46126.731   -122626.29   -483.87111    966.84647   -2470.5453    45883.239     768.3134    120.05816            0    46771.611   -2953.5207    -10.58184    35.614517    35.614517    35.614517            0            0            0   0.42699266 
  137000    45456.567    306.38965   -258040.23    1825.6654    45370.886    47196.552   -123867.96    -479.0139    970.79684   -2461.7084    46944.223     768.3134    120.05816            0    47832.595   -2953.4914   -10.515882    35.688822    35.688822    35.688822            0            0            0   0.42433117 
  138000    45741.084    306.38965    -259913.1    1825.6654    46452.807    48278.472   -125106.12   -474.19727    974.60842   -2453.0508    48017.486     768.3134    120.05816            0    48905.858    -2953.462   -10.450472    35.763127    35.763127    35.763127            0            0            0   0.42169176 
  139000    46026.786    306.38965   -261765.63    1825.6654    47547.439    49373.104   -126337.98   -469.42535    978.89758   -2443.9603    49103.027     768.3134    120.05816            0    49991.399   -2953.4325   -10.385602    35.837432    35.837432    35.837432            0            0            0   0.41907419 
  140000    46313.675    306.38965   -263601.95    1825.6654    48654.037    50479.703   -127566.92   -464.69688    982.91837   -2435.1815    50200.847     768.3134    120.05816            0    51089.219    -2953.403   -10.321269    35.911737    35.911737    35.911737            0            0            0   0.41647824 
  141000    46601.754    306.38965   -265419.01    1825.6654    49773.217    51598.882   -128790.17   -460.00586    987.27859   -2426.1007    51310.946     768.3134    120.05816            0    52199.317   -2953.3734   -10.257466    35.986042    35.986042    35.986042            0            0            0   0.41390369 
  142000    46891.025    306.38965   -267220.04    1825.6654    50904.393    52730.058   -130010.37   -455.35713    991.39953   -2417.3014    52433.323     768.3134    120.05816            0    53321.694   -2953.3438   -10.194187    36.060348    36.060348    36.060348            0            0            0   0.41135032 
  143000    47181.491    306.38965   -269004.21    1825.6654    52047.754    53873.419   -131226.67   -450.75574    995.47361   -2408.5962    53567.979     768.3134    120.05816            0     54456.35   -2953.3141   -10.131428    36.134653    36.134653    36.134653            0            0            0    0.4088179 
  144000    47473.153    306.38965   -270771.76    1825.6654    53203.289    55028.955   -132439.13   -446.19113    999.48029   -2399.9952    54714.913     768.3134    120.05816            0    55603.284   -2953.2843   -10.069184    36.208958    36.208958    36.208958            0            0            0   0.40630623 
  145000    47766.016    306.38965   -272523.07    1825.6654    54370.954     56196.62   -133647.95   -441.67166    1003.3834   -2391.5428    55874.126     768.3134    120.05816            0    56762.497   -2953.2545   -10.007448    36.283263    36.283263    36.283263            0            0            0   0.40381509 
  146000     48060.08    306.38965    -274257.4    1825.6654     55550.93    57376.595   -134852.33   -437.19019    1007.3558    -2383.059    57045.617     768.3134    120.05816            0    57933.989   -2953.2247   -9.9462153    36.357568    36.357568    36.357568            0            0            0   0.40134428 
  147000    48355.348    306.38965   -275975.33    1825.6654    56743.129    58568.795   -136052.64   -432.75301    1011.3185   -2374.6293    58229.387     768.3134    120.05816            0    59117.759   -2953.1947   -9.8854814    36.431874    36.431874    36.431874            0            0            0   0.39889358 
  148000    48651.824    306.38965   -277678.04    1825.6654    57947.355     59773.02   -137249.81   -428.35175    1015.0637   -2366.4528    59425.436     768.3134    120.05816            0    60313.807   -2953.1648   -9.8252411    36.506179    36.506179    36.506179            0            0            0    0.3964628 
  149000    48949.509    306.38965   -279364.58    1825.6654    59163.818    60989.484   -138442.85   -423.99849     1018.817   -2358.3162    60633.763     768.3134    120.05816            0    61522.135   -2953.1347   -9.7654892    36.580484    36.580484    36.580484            0            0            0   0.39405172 
  150000    49248.405    306.38965   -281034.63    1825.6654    60392.625     62218.29   -139631.31   -419.68354    1022.6727   -2350.1155    61854.369     768.3134    120.05816            0     62742.74   -2953.1047   -9.7062208    36.654789    36.654789    36.654789            0            0            0   0.39166016 
  150416    49373.104    306.38965   -281725.46    1825.6654    60907.256    62732.922   -140125.21   -417.90122    1024.1208   -2346.8726    62365.757     768.3134    120.05816            0    63254.129   -2953.0921   -9.6817065      36.6857      36.6857      36.6857            0            0            0   0.39067096 
Loop time of 179.294 on 48 procs for 100000 steps with 2000 atoms

Performance: 48.189 ns/day, 0.498 hours/ns, 557.744 timesteps/s
47.6% CPU use with 48 MPI tasks x 1 OpenMP threads

MPI task timing breakdown:
Section |  min time  |  avg time  |  max time  |%varavg| %total
---------------------------------------------------------------
Pair    | 23.526     | 40.065     | 53.314     |  84.1 | 22.35
Bond    | 1.1074     | 1.8236     | 2.6804     |  26.0 |  1.02
Kspace  | 30.613     | 43.725     | 64.568     | 107.9 | 24.39
Neigh   | 0.028823   | 0.032627   | 0.036079   |   1.4 |  0.02
Comm    | 67.475     | 76.921     | 91.824     |  73.9 | 42.90
Output  | 0.11693    | 0.12352    | 0.13677    |   1.1 |  0.07
Modify  | 0.43871    | 0.50284    | 0.79628    |  10.3 |  0.28
Other   |            | 16.1       |            |       |  8.98

Nlocal:    41.6667 ave 54 max 27 min
Histogram: 1 2 2 2 14 7 12 5 1 2
Nghost:    2626.96 ave 2662 max 2585 min
Histogram: 1 5 4 5 7 4 5 8 4 5
Neighs:    12119.9 ave 16254 max 7004 min
Histogram: 1 0 3 3 9 12 13 4 1 2

Total # of neighbors = 581754
Ave neighs/atom = 290.877
Ave special neighs/atom = 7.2
Neighbor list builds = 30
Dangerous builds = 0
# >>>>>>>>>  Equilibration run <<<<<<<<<<<<<<<<<<<<<<<<<<<<<<<<<<

fix             NVT_equib all nvt temp ${simulationTemp} ${simulationTemp} 100
fix             NVT_equib all nvt temp 310 ${simulationTemp} 100
fix             NVT_equib all nvt temp 310 310 100

print           "Step Density Temperature Pressure KinEng PotEng TotEng" file Properties_equib_acetone.txt
Step Density Temperature Pressure KinEng PotEng TotEng
fix             PRINT_equib all print ${printfreq} "$(v_step) $(v_density) $(v_temp) $(v_press) $(v_pe) $(v_ke) $(v_etotal) $(v_enthalpy)" append Properties_equib_acetone.txt title ""
fix             PRINT_equib all print 1000 "$(v_step) $(v_density) $(v_temp) $(v_press) $(v_pe) $(v_ke) $(v_etotal) $(v_enthalpy)" append Properties_equib_acetone.txt title ""
# The 'print' and fix print' commands as used above will create a file named 'Properties_equib.txt' which allows you to quickly make plots to test for equilibration


run             ${NVT_equib}
run             100000
Ewald initialization ...
  using 12-bit tables for long-range coulomb (src/kspace.cpp:332)
  G vector (1/distance) = 0.143569
  estimated absolute RMS force accuracy = 0.0337157
  estimated relative force accuracy = 0.000101534
  KSpace vectors: actual max1d max3d = 128 4 364
                  kxmax kymax kzmax  = 4 4 4
Per MPI rank memory allocation (min/avg/max) = 22.55 | 22.92 | 23.05 Mbytes
Step Volume Temp Press KinEng PotEng TotEng Enthalpy E_vdwl E_coul E_pair E_bond E_angle E_dihed E_impro E_mol E_long E_tail Lx Ly Lz Xy Xz Yz Density 
  150416    49373.104    306.38965   -281729.94    1825.6654    60908.431    62734.096   -140127.26   -417.89698    907.84342   -2346.9298    62366.989     768.3134    120.05816            0    63255.361   -2836.8762   -9.6817065      36.6857      36.6857      36.6857            0            0            0   0.39067096 
151000 0.39067096407034102024 278.78550989455101217 -4372.1364969430896963 -817.81038870667998708 1661.182292726409969 843.3719040197349841 -2304.8115513157099485
  151000    49373.104    278.78551   -4372.1365    1661.1823   -817.81039     843.3719   -2304.8116   -346.66932    536.91195    -2648.033    767.46257    954.93418    107.82591            0    1830.2227   -2838.2757   -9.6817065      36.6857      36.6857      36.6857            0            0            0   0.39067096 
152000 0.39067096407034102024 340.40685962486298877 -1203.7382274345100086 -1193.5187270005399114 2028.3616883291999784 834.84296132866097651 -31.916064793635101182
  152000    49373.104    340.40686   -1203.7382    2028.3617   -1193.5187    834.84296   -31.916065   -471.83335     462.8999   -2845.9797    620.67832    934.44409    97.338537            0    1652.4609   -2837.0462   -9.6817065      36.6857      36.6857      36.6857            0            0            0   0.39067096 
153000 0.39067096407034102024 301.66822661586201093 -1326.5395402887199907 -1338.9818129408399727 1797.532147642820064 458.55033470197400902 -496.63252303934899601
  153000    49373.104    301.66823   -1326.5395    1797.5321   -1338.9818    458.55033   -496.63252   -531.91706    476.70536   -2890.8999    614.54134    841.16498    96.211796            0    1551.9181   -2835.6882   -9.6817065      36.6857      36.6857      36.6857            0            0            0   0.39067096 
154000 0.39067096407034102024 295.19822841144002723 -1440.249991123790096 -1390.4437641266199535 1758.9797621360401081 368.53599800941401554 -668.52476090631000716
  154000    49373.104    295.19823     -1440.25    1758.9798   -1390.4438      368.536   -668.52476   -544.33578    486.77913   -2892.6287    587.68023     821.3241    93.180584            0    1502.1849    -2835.072   -9.6817065      36.6857      36.6857      36.6857            0            0            0   0.39067096 
155000 0.39067096407034102024 323.49911518201099625 -455.51819386787900612 -1314.8954766664799081 1927.6145379875899835 612.71906132111303123 284.72041751349098604
  155000    49373.104    323.49912   -455.51819    1927.6145   -1314.8955    612.71906    284.72042   -560.88712    493.46709   -2902.5721    627.46284    848.56643    111.64739            0    1587.6767   -2835.1521   -9.6817065      36.6857      36.6857      36.6857            0            0            0   0.39067096 
156000 0.39067096407034102024 311.33240151292397968 1046.5894369333200302 -1414.1377841125399755 1855.1174798894001015 440.97969577685302056 1194.5827802610699564
  156000    49373.104     311.3324    1046.5894    1855.1175   -1414.1378     440.9797    1194.5828   -557.42516    485.36492   -2907.8016     588.2236    808.65161    96.788571            0    1493.6638   -2835.7413   -9.6817065      36.6857      36.6857      36.6857            0            0            0   0.39067096 
157000 0.39067096407034102024 301.5101825516160261 298.68722337946900325 -1480.5110914909998883 1796.590420072059942 316.07932858105999685 531.15087898228296126
  157000    49373.104    301.51018    298.68722    1796.5904   -1480.5111    316.07933    531.15088   -597.76764    486.39341   -2945.7842     547.3813    810.28017    107.61161            0    1465.2731   -2834.4099   -9.6817065      36.6857      36.6857      36.6857            0            0            0   0.39067096 
158000 0.39067096407034102024 302.68748531073401864 52.535330027889600046 -1424.0052042173799691 1803.6055425486999866 379.60033833131899428 417.42872198997798705
  158000    49373.104    302.68749     52.53533    1803.6055   -1424.0052    379.60034    417.42872   -596.19746    489.44754   -2942.0239    580.18895    821.67153    116.15822            0    1518.0187    -2835.274   -9.6817065      36.6857      36.6857      36.6857            0            0            0   0.39067096 
159000 0.39067096407034102024 313.15386151928601066 -157.41376303036199147 -1475.3248379956798999 1865.9709030483800234 390.64606505270597836 277.29932833468001263
  159000    49373.104    313.15386   -157.41376    1865.9709   -1475.3248    390.64607    277.29933   -614.22866    484.77246   -2962.4583    587.12417    792.25425    107.75502            0    1487.1334   -2833.0021   -9.6817065      36.6857      36.6857      36.6857            0            0            0   0.39067096 
160000 0.39067096407034102024 318.73072043944301868 -28.077996644822800221 -1503.6280615136399774 1899.2013937245299076 395.57333221088902064 375.35560008884800709
  160000    49373.104    318.73072   -28.077997    1899.2014   -1503.6281    395.57333     375.3556   -630.48038     486.6208   -2978.9412     578.1231    789.22303    107.96697            0    1475.3131   -2835.0816   -9.6817065      36.6857      36.6857      36.6857            0            0            0   0.39067096 
161000 0.39067096407034102024 305.77210745954801041 132.02872845377299882 -1444.4214128362400515 1821.9856932792799853 377.56428044303999059 472.63236874214999261
  161000    49373.104    305.77211    132.02873    1821.9857   -1444.4214    377.56428    472.63237   -619.98759    494.27113    -2962.397    607.72081    801.15528    109.09946            0    1517.9756   -2836.6805   -9.6817065      36.6857      36.6857      36.6857            0            0            0   0.39067096 
162000 0.39067096407034102024 304.12287986877299772 -13.129898271610400684 -1506.7543356529799894 1812.1585409588099083 305.40420530583298842 295.94994226124998704
  162000    49373.104    304.12288   -13.129898    1812.1585   -1506.7543    305.40421    295.94994    -615.9702    492.54377   -2958.9348     553.2783    791.93792    106.96423            0    1452.1804   -2835.5084   -9.6817065      36.6857      36.6857      36.6857            0            0            0   0.39067096 
163000 0.39067096407034102024 307.12223206931099639 305.44101755648802055 -1433.8927116776098956 1830.0305988253398937 396.13788714772601907 616.07254809083201508
  163000    49373.104    307.12223    305.44102    1830.0306   -1433.8927    396.13789    616.07255   -592.12706    493.27394   -2934.8352    590.98254    803.45828    106.50169            0    1500.9425   -2835.9821   -9.6817065      36.6857      36.6857      36.6857            0            0            0   0.39067096 
164000 0.39067096407034102024 310.96163514248399906 -223.78910251313598678 -1468.8552122838600553 1852.9082168270999773 384.05300454324600423 222.91230124891501418
  164000    49373.104    310.96164    -223.7891    1852.9082   -1468.8552      384.053     222.9123   -602.33928    506.05871   -2930.0538    591.92294    763.97372    105.30193            0    1461.1986   -2833.7732   -9.6817065      36.6857      36.6857      36.6857            0            0            0   0.39067096 
165000 0.39067096407034102024 301.67048234920599725 -561.47617580465100673 -1456.5183985494400076 1797.5455887441401046 341.02719019470100648 -63.267142443154803289
  165000    49373.104    301.67048   -561.47618    1797.5456   -1456.5184    341.02719   -63.267142   -609.79883    487.26597   -2955.0981    622.91946     773.3468    102.31346            0    1498.5797   -2832.5653   -9.6817065      36.6857      36.6857      36.6857            0            0            0   0.39067096 
166000 0.39067096407034102024 312.79113195154900495 -133.7923780454740097 -1527.3731771358700371 1863.8095283944298899 336.43635125856599188 240.09833635275398933
  166000    49373.104    312.79113   -133.79238    1863.8095   -1527.3732    336.43635    240.09834   -637.61089    497.14859   -2974.1848    587.79354     762.7375    96.280559            0    1446.8116   -2833.7225   -9.6817065      36.6857      36.6857      36.6857            0            0            0   0.39067096 
167000 0.39067096407034102024 315.41019669102297485 -565.06500734507903871 -1506.3715491680000014 1879.4155904539900348 373.04404128599202295 -33.834451312894302077
  167000    49373.104     315.4102   -565.06501    1879.4156   -1506.3715    373.04404   -33.834451   -638.13725    479.16732   -2990.6716    583.87582    786.97663    113.44756            0       1484.3   -2831.7016   -9.6817065      36.6857      36.6857      36.6857            0            0            0   0.39067096 
168000 0.39067096407034102024 311.12423286950797774 -353.25412864644897581 -1526.6963730484399093 1853.8770780318100151 327.18070498336300034 72.817922826114795498
  168000    49373.104    311.12423   -353.25413    1853.8771   -1526.6964     327.1807    72.817923   -636.05688    477.50523   -2992.2998    573.00918    788.54726      104.047            0    1465.6034   -2833.7482   -9.6817065      36.6857      36.6857      36.6857            0            0            0   0.39067096 
169000 0.39067096407034102024 321.09432886570897381 0.57162062624406895228 -1609.938509788240026 1913.2852837593400182 303.34677397110101538 303.75837287692797872
  169000    49373.104    321.09433   0.57162063    1913.2853   -1609.9385    303.34677    303.75837   -631.11629    473.30921   -2994.7423    541.87103    742.33232    100.60044            0    1384.8038   -2836.9352   -9.6817065      36.6857      36.6857      36.6857            0            0            0   0.39067096 
170000 0.39067096407034102024 307.5011389384860081 -563.23962169513197296 -1485.0874632245599969 1832.2883681832399816 347.20090495867901836 -58.363207609577500534
  170000    49373.104    307.50114   -563.23962    1832.2884   -1485.0875     347.2009   -58.363208   -627.96552    494.25207   -2969.2883    578.69032    801.15804    104.35251            0    1484.2009   -2835.5749   -9.6817065      36.6857      36.6857      36.6857            0            0            0   0.39067096 
171000 0.39067096407034102024 320.04486051600900964 -353.82510603205599864 -1516.2727122777901059 1907.0318804172600267 390.75916813946997763 135.98525024572398934
  171000    49373.104    320.04486   -353.82511    1907.0319   -1516.2727    390.75917    135.98525   -631.85344    500.60766   -2963.8722    584.12311    759.50337    103.97298            0    1447.5995   -2832.6264   -9.6817065      36.6857      36.6857      36.6857            0            0            0   0.39067096 
172000 0.39067096407034102024 301.93625110310699711 -1167.4791974255099376 -1499.3004064904700954 1799.1292088831798992 299.82880239271702294 -540.82168881520397008
  172000    49373.104    301.93625   -1167.4792    1799.1292   -1499.3004     299.8288   -540.82169   -644.29317    474.12183    -3006.975     585.2401    813.57673    108.85773            0    1507.6746   -2836.8036   -9.6817065      36.6857      36.6857      36.6857            0            0            0   0.39067096 
173000 0.39067096407034102024 308.38599161098602508 -329.01947951694199901 -1541.9873929171999407 1837.5608860834099687 295.57349316621099433 58.661017395489800208
  173000    49373.104    308.38599   -329.01948    1837.5609   -1541.9874    295.57349    58.661017   -637.86101    487.74152   -2982.6669    601.97283    735.12099    103.58573            0    1440.6795   -2832.5474   -9.6817065      36.6857      36.6857      36.6857            0            0            0   0.39067096 
174000 0.39067096407034102024 304.76635470719401155 14.439043520545400412 -1530.7024931375299275 1815.9927754131199436 285.29028227559700781 295.68720331272197654
  174000    49373.104    304.76635    14.439044    1815.9928   -1530.7025    285.29028     295.6872   -623.40682    484.84809   -2972.1487    577.09559    752.30601    112.04461            0    1441.4462     -2833.59   -9.6817065      36.6857      36.6857      36.6857            0            0            0   0.39067096 
175000 0.39067096407034102024 315.18970685447197866 482.41380136239598642 -1516.6140671916000429 1878.101771050879961 361.48770385928099813 708.85269329555194417
  175000    49373.104    315.18971     482.4138    1878.1018   -1516.6141     361.4877    708.85269   -619.62569    493.11871   -2960.8793    578.99762    755.93665    109.33097            0    1444.2652   -2834.3723   -9.6817065      36.6857      36.6857      36.6857            0            0            0   0.39067096 
176000 0.39067096407034102024 309.40939560684699927 256.9691284406790146 -1450.916906636449994 1843.6589813426398905 392.74207470619199967 577.77425731406299292
  176000    49373.104     309.4094    256.96913     1843.659   -1450.9169    392.74207    577.77426    -617.5362     500.0994   -2952.9162    586.58145    809.11815    106.29975            0    1501.9993   -2835.4794   -9.6817065      36.6857      36.6857      36.6857            0            0            0   0.39067096 
177000 0.39067096407034102024 305.51611007929301422 325.60219975374599244 -1536.1776152455599913 1820.4602972311599842 284.28268198559999291 518.73452469505502904
  177000    49373.104    305.51611     325.6022    1820.4603   -1536.1776    284.28268    518.73452    -646.9325    485.40553    -2996.168    568.28641    792.45886    99.245121            0    1459.9904    -2834.641   -9.6817065      36.6857      36.6857      36.6857            0            0            0   0.39067096 
178000 0.39067096407034102024 313.60625928542697238 131.20476973016300803 -1589.2540110283000558 1868.6665781523900023 279.41256712409102647 373.88735893683400491
  178000    49373.104    313.60626    131.20477    1868.6666    -1589.254    279.41257    373.88736   -667.85675    491.71696   -3009.1199    561.90997    755.74925    102.20668            0    1419.8659   -2832.9801   -9.6817065      36.6857      36.6857      36.6857            0            0            0   0.39067096 
179000 0.39067096407034102024 314.07979171624998571 -574.23508789882305337 -1557.772928822879976 1871.488187099759898 313.71525827687599985 -99.766206553909995591
  179000    49373.104    314.07979   -574.23509    1871.4882   -1557.7729    313.71526   -99.766207   -645.31877    481.01338      -2999.1    558.74992    778.75861    103.81852            0    1441.3271   -2834.7946   -9.6817065      36.6857      36.6857      36.6857            0            0            0   0.39067096 
180000 0.39067096407034102024 309.31165925440700448 -503.49692412146299603 -1529.0335413840800811 1843.0766056729401043 314.04306428885399782 -48.502955818190898185
  180000    49373.104    309.31166   -503.49692    1843.0766   -1529.0335    314.04306   -48.502956   -659.35643    478.26496   -3016.1476    575.08588    793.88718    118.14095            0     1487.114   -2835.0561   -9.6817065      36.6857      36.6857      36.6857            0            0            0   0.39067096 
181000 0.39067096407034102024 311.2453569152959858 161.7158588825789991 -1586.6089841807299763 1854.5988125299900275 267.98982834926897567 384.4343153307380021
  181000    49373.104    311.24536    161.71586    1854.5988    -1586.609    267.98983    384.43432   -653.49204     497.2181   -2989.8558     550.6631    743.84592    108.73777            0    1403.2468   -2833.5818   -9.6817065      36.6857      36.6857      36.6857            0            0            0   0.39067096 
182000 0.39067096407034102024 305.6137190585790222 -704.22844740787900264 -1480.6061836122798923 1821.0419139301900486 340.43573031790401728 -166.64824303383301185
  182000    49373.104    305.61372   -704.22845    1821.0419   -1480.6062    340.43573   -166.64824   -632.84521    479.71331   -2988.5355    570.86029    830.40279    106.66624            0    1507.9293   -2835.4036   -9.6817065      36.6857      36.6857      36.6857            0            0            0   0.39067096 
183000 0.39067096407034102024 319.36664878810000801 766.69652020825503769 -1496.8451305641599447 1902.9906613684399872 406.14553080427498344 958.21001961209094588
  183000    49373.104    319.36665    766.69652    1902.9907   -1496.8451    406.14553    958.21002   -641.64158    490.01507   -2985.9938    574.83363    802.39567    111.91938            0    1489.1487   -2834.3673   -9.6817065      36.6857      36.6857      36.6857            0            0            0   0.39067096 
184000 0.39067096407034102024 312.19641999398902499 -67.671663632932393284 -1569.5763865901599274 1860.2658543579100296 290.68946776775300123 241.96207510899799331
  184000    49373.104    312.19642   -67.671664    1860.2659   -1569.5764    290.68947    241.96208   -647.96057     479.4736   -3002.4243    530.39531    790.63634    111.81624            0    1432.8479   -2833.9373   -9.6817065      36.6857      36.6857      36.6857            0            0            0   0.39067096 
185000 0.39067096407034102024 300.77297747168898923 -101.24151329723399328 -1523.1073818526399464 1792.1976809180500823 269.09029906541201171 196.19073214239401182
  185000    49373.104    300.77298   -101.24151    1792.1977   -1523.1074     269.0903    196.19073   -627.75205    493.11276   -2967.1953    548.17084    792.35619    103.56092            0    1444.0879    -2832.556   -9.6817065      36.6857      36.6857      36.6857            0            0            0   0.39067096 
186000 0.39067096407034102024 303.73862596616999099 714.18544912422896687 -1503.0403441752600884 1809.8689105574499081 306.82856638219197976 821.08213933130605255
  186000    49373.104    303.73863    714.18545    1809.8689   -1503.0403    306.82857    821.08214   -620.95698     487.9808   -2966.6645    567.22642    788.28746     108.1103            0    1463.6242   -2833.6883   -9.6817065      36.6857      36.6857      36.6857            0            0            0   0.39067096 
187000 0.39067096407034102024 309.5661219477850068 -963.87391217967797274 -1517.5574516045101063 1844.5928570755199871 327.03540547100902813 -367.00786272867702564
  187000    49373.104    309.56612   -963.87391    1844.5929   -1517.5575    327.03541   -367.00786   -641.10735    492.61735   -2984.6322    568.17012    797.22253    101.68208            0    1467.0747   -2836.1422   -9.6817065      36.6857      36.6857      36.6857            0            0            0   0.39067096 
188000 0.39067096407034102024 315.21377526997400764 -68.05297869203299399 -1595.0429841201998897 1878.2451860571400175 283.20220193693398869 234.20024105251400215
[...]
253000 0.39067096407034102024 303.26886833011099043 -259.41834225367301769 -1561.7573982532699119 1807.0697942504700677 245.31239599720200317 58.516642098718499199
  253000    49373.104    303.26887   -259.41834    1807.0698   -1561.7574     245.3124    58.516642   -682.59051    483.08166   -3034.4688    584.38343    779.50795    108.81999            0    1472.7114   -2834.9599   -9.6817065      36.6857      36.6857      36.6857            0            0            0   0.39067096 
254000 0.39067096407034102024 313.51532841320801026 96.742399490329106015 -1561.163128051510057 1868.1247538845200324 306.96162583300298365 376.62157851697202204
254000 0.39067096407034102024 313.51532841320801026 96.742399490329106015 -1561.163128051510057 1868.1247538845200324 306.96162583300298365 376.62157851697202204
  254000    49373.104    313.51533    96.742399    1868.1248   -1561.1631    306.96163    376.62158   -696.02228    480.30622   -3050.6431    578.39561    805.70915    105.37521            0      1489.48    -2834.927   -9.6817065      36.6857      36.6857      36.6857            0            0            0   0.39067096 
255000 0.39067096407034102024 313.55871133145097929 -9.4002415284516303018 -1622.0492409653700179 1868.3832570456700068 246.33401608029998897 239.56531503980900766
255000 0.39067096407034102024 313.55871133145097929 -9.4002415284516303018 -1622.0492409653700179 1868.3832570456700068 246.33401608029998897 239.56531503980900766
  255000    49373.104    313.55871   -9.4002415    1868.3833   -1622.0492    246.33402    239.56532   -719.59019    458.77727   -3094.9859    563.54163    799.46176    109.93328            0    1472.9367    -2834.173   -9.6817065      36.6857      36.6857      36.6857            0            0            0   0.39067096 
256000 0.39067096407034102024 295.88113319001399759 -248.1931672353099998 -1530.0182351929599918 1763.0489453809400402 233.03071018798499381 54.317711780040198732
256000 0.39067096407034102024 295.88113319001399759 -248.1931672353099998 -1530.0182351929599918 1763.0489453809400402 233.03071018798499381 54.317711780040198732
  256000    49373.104    295.88113   -248.19317    1763.0489   -1530.0182    233.03071    54.317712   -681.34826     475.1678   -3041.5087     593.1499    810.31355    108.02697            0    1511.4904   -2835.3282   -9.6817065      36.6857      36.6857      36.6857            0            0            0   0.39067096 
257000 0.39067096407034102024 311.70961781293897275 -435.54084455605902804 -1588.542854793520064 1857.3651757554800952 268.82232096195497206 -44.791511065681596904
257000 0.39067096407034102024 311.70961781293897275 -435.54084455605902804 -1588.542854793520064 1857.3651757554800952 268.82232096195497206 -44.791511065681596904
  257000    49373.104    311.70962   -435.54084    1857.3652   -1588.5429    268.82232   -44.791511    -684.7752     467.6268   -3051.9901    563.10792    791.67592    108.66343            0    1463.4473   -2834.8417   -9.6817065      36.6857      36.6857      36.6857            0            0            0   0.39067096 
258000 0.39067096407034102024 304.98347608359699734 -716.84385581099195406 -1591.3642609338799048 1817.2865233772499778 225.92226244336600871 -290.24551239644301859
258000 0.39067096407034102024 304.98347608359699734 -716.84385581099195406 -1591.3642609338799048 1817.2865233772499778 225.92226244336600871 -290.24551239644301859
  258000    49373.104    304.98348   -716.84386    1817.2865   -1591.3643    225.92226   -290.24551   -681.11782    492.46324   -3024.6032    564.15726     765.4562    103.62545            0    1433.2389   -2835.9486   -9.6817065      36.6857      36.6857      36.6857            0            0            0   0.39067096 
259000 0.39067096407034102024 319.03989979369498542 -406.9672153210859733 -1553.0555169628898966 1901.0436819724200177 347.98816500953398645 54.948948362575798399
259000 0.39067096407034102024 319.03989979369498542 -406.9672153210859733 -1553.0555169628898966 1901.0436819724200177 347.98816500953398645 54.948948362575798399
  259000    49373.104     319.0399   -406.96722    1901.0437   -1553.0555    347.98817    54.948948   -684.98634    486.35795    -3034.033     562.6222    815.05162    103.30364            0    1480.9775   -2835.4046   -9.6817065      36.6857      36.6857      36.6857            0            0            0   0.39067096 
260000 0.39067096407034102024 308.45429072970500783 305.99373139000601896 -1602.3048809146200711 1837.9678558956800316 235.66297498105600994 455.99562087898499385
260000 0.39067096407034102024 308.45429072970500783 305.99373139000601896 -1602.3048809146200711 1837.9678558956800316 235.66297498105600994 455.99562087898499385
  260000    49373.104    308.45429    305.99373    1837.9679   -1602.3049    235.66297    455.99562   -693.49399    465.38676   -3062.6391     583.7554    763.47663    113.10216            0    1460.3342   -2834.5318   -9.6817065      36.6857      36.6857      36.6857            0            0            0   0.39067096 
261000 0.39067096407034102024 311.01580638118798561 -86.766075944464304825 -1616.126603435179959 1853.2310036984299586 237.10440026325099439 174.62795997742600207
261000 0.39067096407034102024 311.01580638118798561 -86.766075944464304825 -1616.126603435179959 1853.2310036984299586 237.10440026325099439 174.62795997742600207
  261000    49373.104    311.01581   -86.766076     1853.231   -1616.1266     237.1044    174.62796   -678.85493     456.5223   -3056.9886    569.19523     758.1946    113.47219            0     1440.862    -2834.656   -9.6817065      36.6857      36.6857      36.6857            0            0            0   0.39067096 
262000 0.39067096407034102024 304.1734424680370239 -201.8722483664749916 -1470.6757223326699204 1812.4598252493899508 341.78410291671701771 196.42476364561798619
262000 0.39067096407034102024 304.1734424680370239 -201.8722483664749916 -1470.6757223326699204 1812.4598252493899508 341.78410291671701771 196.42476364561798619
  262000    49373.104    304.17344   -201.87225    1812.4598   -1470.6757     341.7841    196.42476   -659.48069    490.46671   -3002.5204    592.66178    825.04571    114.13719            0    1531.8447   -2833.5064   -9.6817065      36.6857      36.6857      36.6857            0            0            0   0.39067096 
263000 0.39067096407034102024 311.56701589955599729 279.51711850715997798 -1578.4512670009999056 1856.515462391570054 278.06419539057498014 479.33219527633701773
263000 0.39067096407034102024 311.56701589955599729 279.51711850715997798 -1578.4512670009999056 1856.515462391570054 278.06419539057498014 479.33219527633701773
  263000    49373.104    311.56702    279.51712    1856.5155   -1578.4513     278.0642     479.3322   -658.46948    480.97063   -3012.7368    566.38109    761.43282    106.47161            0    1434.2855   -2835.2379   -9.6817065      36.6857      36.6857      36.6857            0            0            0   0.39067096 
264000 0.39067096407034102024 309.12749497242901953 558.16446807616000569 -1540.5868050779799887 1841.979237146540072 301.39243206855900326 703.30214943032899555
264000 0.39067096407034102024 309.12749497242901953 558.16446807616000569 -1540.5868050779799887 1841.979237146540072 301.39243206855900326 703.30214943032899555
  264000    49373.104    309.12749    558.16447    1841.9792   -1540.5868    301.39243    703.30215   -663.38803    491.40392   -3005.9453    589.21449    775.01425    101.12979            0    1465.3585   -2833.9612   -9.6817065      36.6857      36.6857      36.6857            0            0            0   0.39067096 
265000 0.39067096407034102024 323.50013904783099861 -419.89821209427401527 -1514.3746945321499879 1927.6206388347000029 413.24594430254398958 110.89568484372300361
265000 0.39067096407034102024 323.50013904783099861 -419.89821209427401527 -1514.3746945321499879 1927.6206388347000029 413.24594430254398958 110.89568484372300361
  265000    49373.104    323.50014   -419.89821    1927.6206   -1514.3747    413.24594    110.89568   -670.38591    493.80546   -3010.1553    584.42667    799.22544    112.12846            0    1495.7806   -2833.5748   -9.6817065      36.6857      36.6857      36.6857            0            0            0   0.39067096 
266000 0.39067096407034102024 310.9374710023690227 -20.684668065999698428 -1533.1169208788498963 1852.7642314324000381 319.64731055355497347 304.75318960604698759
266000 0.39067096407034102024 310.9374710023690227 -20.684668065999698428 -1533.1169208788498963 1852.7642314324000381 319.64731055355497347 304.75318960604698759
  266000    49373.104    310.93747   -20.684668    1852.7642   -1533.1169    319.64731    304.75319   -652.20697    478.79804   -3006.7185    601.52063    771.34018    100.74079            0    1473.6016   -2833.3096   -9.6817065      36.6857      36.6857      36.6857            0            0            0   0.39067096 
267000 0.39067096407034102024 305.80184674172602399 -1265.8083393902300031 -1544.3321303806699234 1822.1628989345199443 277.83076855384297232 -633.62221889981594813
267000 0.39067096407034102024 305.80184674172602399 -1265.8083393902300031 -1544.3321303806699234 1822.1628989345199443 277.83076855384297232 -633.62221889981594813
  267000    49373.104    305.80185   -1265.8083    1822.1629   -1544.3321    277.83077   -633.62222   -653.46974    491.71821   -2995.6975     562.9499    779.50529    108.91022            0    1451.3654    -2833.946   -9.6817065      36.6857      36.6857      36.6857            0            0            0   0.39067096 
268000 0.39067096407034102024 305.09120704021597703 -564.91348296566002318 -1575.267505286100004 1817.928453288099945 242.66094800200198733 -164.10843854662701347
268000 0.39067096407034102024 305.09120704021597703 -564.91348296566002318 -1575.267505286100004 1817.928453288099945 242.66094800200198733 -164.10843854662701347
  268000    49373.104    305.09121   -564.91348    1817.9285   -1575.2675    242.66095   -164.10844   -674.98399    481.14504     -3031.13    571.80518    784.28002    99.777322            0    1455.8625   -2837.2911   -9.6817065      36.6857      36.6857      36.6857            0            0            0   0.39067096 
269000 0.39067096407034102024 305.23565662940899301 -12.686417860953900671 -1575.3383557742299672 1818.7891762856900186 243.4508205114539976 234.31588823172000957
269000 0.39067096407034102024 305.23565662940899301 -12.686417860953900671 -1575.3383557742299672 1818.7891762856900186 243.4508205114539976 234.31588823172000957
  269000    49373.104    305.23566   -12.686418    1818.7892   -1575.3384    243.45082    234.31589   -660.13048    485.92971   -3008.7369    549.55744    777.25083    106.59032            0    1433.3986   -2834.5362   -9.6817065      36.6857      36.6857      36.6857            0            0            0   0.39067096 
270000 0.39067096407034102024 305.27252863086300749 -155.96245481820599821 -1515.8178002566799023 1819.0088832422500218 303.19108298556801628 190.88936956571700421
270000 0.39067096407034102024 305.27252863086300749 -155.96245481820599821 -1515.8178002566799023 1819.0088832422500218 303.19108298556801628 190.88936956571700421
  270000    49373.104    305.27253   -155.96245    1819.0089   -1515.8178    303.19108    190.88937   -635.76204    488.10652   -2983.1872     568.5121    783.11703    115.74026            0    1467.3694   -2835.5317   -9.6817065      36.6857      36.6857      36.6857            0            0            0   0.39067096 
271000 0.39067096407034102024 305.06709643174701796 -358.95241205484302327 -1517.877884068350113 1817.7847868691699205 299.90690280082100116 41.441037045277901996
271000 0.39067096407034102024 305.06709643174701796 -358.95241205484302327 -1517.877884068350113 1817.7847868691699205 299.90690280082100116 41.441037045277901996
  271000    49373.104     305.0671   -358.95241    1817.7848   -1517.8779     299.9069    41.441037   -619.09275    491.80024   -2962.8445    583.60946    749.14632    112.21086            0    1444.9666    -2835.552   -9.6817065      36.6857      36.6857      36.6857            0            0            0   0.39067096 
272000 0.39067096407034102024 320.26267898974697346 -32.735225256491396806 -1509.4221594199400442 1908.3297821329499584 398.90762271301497321 375.33642482584497202
272000 0.39067096407034102024 320.26267898974697346 -32.735225256491396806 -1509.4221594199400442 1908.3297821329499584 398.90762271301497321 375.33642482584497202
  272000    49373.104    320.26268   -32.735225    1908.3298   -1509.4222    398.90762    375.33642   -610.73231    485.17243   -2960.7833    556.17596    793.18997    101.99519            0    1451.3611   -2835.2234   -9.6817065      36.6857      36.6857      36.6857            0            0            0   0.39067096 
273000 0.39067096407034102024 318.64180942784901163 580.40805193575295107 -1517.5887598457100012 1898.6716050775401072 381.08284523183300507 799.00919033226102783
273000 0.39067096407034102024 318.64180942784901163 580.40805193575295107 -1517.5887598457100012 1898.6716050775401072 381.08284523183300507 799.00919033226102783
  273000    49373.104    318.64181    580.40805    1898.6716   -1517.5888    381.08285    799.00919   -636.98384    497.23571    -2973.822    578.89673    772.24538    105.09117            0    1456.2333   -2834.0739   -9.6817065      36.6857      36.6857      36.6857            0            0            0   0.39067096 
274000 0.39067096407034102024 310.7366902040590162 -1143.4931513271299082 -1570.7278433035598937 1851.5678510789300617 280.84000777536601845 -542.53918516942201222
274000 0.39067096407034102024 310.7366902040590162 -1143.4931513271299082 -1570.7278433035598937 1851.5678510789300617 280.84000777536601845 -542.53918516942201222
  274000    49373.104    310.73669   -1143.4932    1851.5679   -1570.7278    280.84001   -542.53919   -648.40132    503.14772   -2980.3077     549.9239    760.48748    99.168519            0    1409.5799   -2835.0541   -9.6817065      36.6857      36.6857      36.6857            0            0            0   0.39067096 
275000 0.39067096407034102024 313.1650271147070157 -1591.4305362026200328 -1539.1521888094800943 1866.0374348039499637 326.88524599446799357 -819.03398317225298797
275000 0.39067096407034102024 313.1650271147070157 -1591.4305362026200328 -1539.1521888094800943 1866.0374348039499637 326.88524599446799357 -819.03398317225298797
  275000    49373.104    313.16503   -1591.4305    1866.0374   -1539.1522    326.88525   -819.03398   -641.90509    495.86102   -2980.9513    582.09246    749.58196     110.1247            0    1441.7991   -2834.9073   -9.6817065      36.6857      36.6857      36.6857            0            0            0   0.39067096 
276000 0.39067096407034102024 304.50381846418900977 -124.67072474777799584 -1489.6394259710100414 1814.4284166405200267 324.78899066950998531 235.01907765557399443
276000 0.39067096407034102024 304.50381846418900977 -124.67072474777799584 -1489.6394259710100414 1814.4284166405200267 324.78899066950998531 235.01907765557399443
  276000    49373.104    304.50382   -124.67072    1814.4284   -1489.6394    324.78899    235.01908   -629.58839    492.97887   -2971.2197    571.95501     800.6455    108.97974            0    1481.5803   -2834.6102   -9.6817065      36.6857      36.6857      36.6857            0            0            0   0.39067096 
277000 0.39067096407034102024 306.1136133328050164 67.067352422759896058 -1512.1981261511800767 1824.0206035934099873 311.82247744223701602 360.11473214153801337
277000 0.39067096407034102024 306.1136133328050164 67.067352422759896058 -1512.1981261511800767 1824.0206035934099873 311.82247744223701602 360.11473214153801337
  277000    49373.104    306.11361    67.067352    1824.0206   -1512.1981    311.82248    360.11473   -620.75592    479.49826   -2975.8063    544.66914    808.59773    110.34126            0    1463.6081   -2834.5486   -9.6817065      36.6857      36.6857      36.6857            0            0            0   0.39067096 
278000 0.39067096407034102024 324.68647826948301827 159.98237471146501321 -1455.4935929871498956 1934.6896063320400572 479.19601334488601196 594.3922945140700449
278000 0.39067096407034102024 324.68647826948301827 159.98237471146501321 -1455.4935929871498956 1934.6896063320400572 479.19601334488601196 594.3922945140700449
  278000    49373.104    324.68648    159.98237    1934.6896   -1455.4936    479.19601    594.39229   -623.14481    508.29199   -2947.2922    561.94974    816.07278    113.77608            0    1491.7986   -2832.4394   -9.6817065      36.6857      36.6857      36.6857            0            0            0   0.39067096 
279000 0.39067096407034102024 303.85571266759802711 -292.4271855525730075 -1525.8724508263198913 1810.5665879769098865 284.69413715058800562 74.130165030643297541
279000 0.39067096407034102024 303.85571266759802711 -292.4271855525730075 -1525.8724508263198913 1810.5665879769098865 284.69413715058800562 74.130165030643297541
  279000    49373.104    303.85571   -292.42719    1810.5666   -1525.8725    284.69414    74.130165   -651.71375     491.8551   -2994.0388     570.8999    787.85987    109.40655            0    1468.1663   -2834.1801   -9.6817065      36.6857      36.6857      36.6857            0            0            0   0.39067096 
280000 0.39067096407034102024 297.03009553923197927 439.74454731365102589 -1489.3314562819500679 1769.8951975776699328 280.56374129572100173 597.20447504105402459
280000 0.39067096407034102024 297.03009553923197927 439.74454731365102589 -1489.3314562819500679 1769.8951975776699328 280.56374129572100173 597.20447504105402459
  280000    49373.104     297.0301    439.74455    1769.8952   -1489.3315    280.56374    597.20448   -637.52266     485.9208   -2985.8743    598.52876    790.26882    107.74524            0    1496.5428   -2834.2724   -9.6817065      36.6857      36.6857      36.6857            0            0            0   0.39067096 
  280416    49373.104    305.12665    -294.2423    1818.1396   -1525.2332    292.90641    81.035459   -663.80291    486.58379   -3009.9092    571.82026    809.05054    103.80514            0    1484.6759     -2832.69   -9.6817065      36.6857      36.6857      36.6857            0            0            0   0.39067096 
Loop time of 79.9545 on 48 procs for 30000 steps with 2000 atoms

Performance: 32.418 ns/day, 0.740 hours/ns, 375.213 timesteps/s
41.0% CPU use with 48 MPI tasks x 1 OpenMP threads

MPI task timing breakdown:
Section |  min time  |  avg time  |  max time  |%varavg| %total
---------------------------------------------------------------
Pair    | 0.11811    | 10.426     | 27.447     | 280.3 | 13.04
Bond    | 0.049992   | 0.53944    | 1.0396     |  48.2 |  0.67
Kspace  | 12.26      | 28.687     | 39.202     | 161.8 | 35.88
Neigh   | 4.3725     | 4.8268     | 5.1313     |  10.4 |  6.04
Comm    | 21.604     | 25.286     | 30.356     |  39.2 | 31.63
Output  | 0.13051    | 0.13083    | 0.13108    |   0.0 |  0.16
Modify  | 2.5918     | 6.5837     | 9.9968     |  73.5 |  8.23
Other   |            | 3.475      |            |       |  4.35

Nlocal:    41.6667 ave 87 max 0 min
Histogram: 10 2 6 4 2 4 4 5 5 6
Nghost:    2569.5 ave 2850 max 2306 min
Histogram: 3 5 6 7 4 4 7 5 4 3
Neighs:    14512.2 ave 41445 max 0 min
Histogram: 16 7 2 4 2 2 6 4 3 2

Total # of neighbors = 696584
Ave neighs/atom = 348.292
Ave special neighs/atom = 7.2
Neighbor list builds = 3167
Dangerous builds = 0

write_data      restart.${NAME}.final.data
write_data      restart.acetone.final.data
Ewald initialization ...
  using 12-bit tables for long-range coulomb (src/kspace.cpp:332)
  G vector (1/distance) = 0.143569
  estimated absolute RMS force accuracy = 0.0337157
  estimated relative force accuracy = 0.000101534
  KSpace vectors: actual max1d max3d = 128 4 364
                  kxmax kymax kzmax  = 4 4 4
Total wall time: 0:10:51
