LAMMPS data file via write_data, version 3 Mar 2020, timestep = 280498

3700 atoms
9 atom types
3500 bonds
11 bond types
6400 angles
18 angle types
7800 dihedrals
17 dihedral types

0.0000000000000000e+00 3.6685699999999997e+01 xlo xhi
0.0000000000000000e+00 3.6685699999999997e+01 ylo yhi
0.0000000000000000e+00 3.6685699999999997e+01 zlo zhi

Masses

1 12.0108
2 12.0108
3 1.00795
4 15.9994
5 1.00795
6 12.0108
7 12.0108
8 15.9994
9 1.00795

Pair Coeffs # lj/cut/coul/long

1 0.066 3.5
2 0.066 3.5
3 0.03 2.5
4 0.17 3.12
5 0 10
6 0.066 3.5
7 0.105 3.75
8 0.21 2.96
9 0.015 2.42

Bond Coeffs # harmonic

1 317 1.522
2 570 1.229
3 340 1.09
4 268 1.529
5 268 1.529
6 268 1.529
7 320 1.41
8 340 1.09
9 340 1.09
10 340 1.09
11 553 0.945

Angle Coeffs # harmonic

1 80 120.4
2 70 116
3 35 109.5
4 33 107.8
5 58.35 112.7
6 37.5 110.7
7 37.5 110.7
8 58.35 112.7
9 37.5 110.7
10 58.35 112.7
11 50 109.5
12 37.5 110.7
13 37.5 110.7
14 55 108.5
15 35 109.5
16 33 107.8
17 33 107.8
18 33 107.8

Dihedral Coeffs # opls

1 0 -0 0.275 -0
2 -0 -0 -0 -0
3 1.3 -0.05 0.2 -0
4 -0 -0 0.3 -0
5 1.3 -0.05 0.2 -0
6 -0 -0 0.3 -0
7 -0 -0 0.3 -0
8 1.3 -0.05 0.2 -0
9 1.711 -0.5 0.663 -0
10 -0 -0 0.3 -0
11 -0.356 -0.174 0.492 -0
12 -0 -0 0.3 -0
13 0 -0 0.468 -0
14 -0 -0 0.3 -0
15 -0 -0 0.3 -0
16 -0 -0 0.3 -0
17 0 -0 0.45 -0

Atoms # full

397 40 9 5.9999999999999998e-02 1.1167358184560776e+01 9.6914826807923224e-02 5.1820563193123110e+00 -1 0 0
264 27 1 -1.7999999999999999e-01 1.1704912991740557e+01 7.2305218592877873e-01 6.9767413712092263e-01 0 0 1
412 42 7 4.6999999999999997e-01 6.2247890533784105e+00 4.0262100936127059e+00 4.6577706280451832e+00 1 1 0
279 28 9 5.9999999999999998e-02 6.9165053597311594e+00 6.4958856648575631e+00 4.9501709948559353e-01 0 0 1
851 86 1 -1.7999999999999999e-01 9.1927723412560667e+00 6.7691475814054760e+00 6.8365719080870280e+00 0 0 1
816 82 9 5.9999999999999998e-02 4.6689281181623965e+00 6.4641185140332857e-01 6.0726497807581625e-01 0 1 0
368 37 9 5.9999999999999998e-02 1.1133176476219932e+01 4.0317880900298979e+00 5.1001658150221640e+00 1 1 1
263 27 8 -4.6999999999999997e-01 1.0332728050752953e+01 5.1715442315602023e-01 2.6010287282914328e+00 0 0 1
852 86 7 4.6999999999999997e-01 8.7362616086714162e+00 7.7748218578709496e+00 5.7512283612764605e+00 0 0 1
420 42 9 5.9999999999999998e-02 4.7638670524878215e+00 5.4933625261177825e+00 4.6255702439302873e+00 1 1 0
3390 189 3 5.9999999999999998e-02 7.5748514796733701e-01 7.3393759928562812e+00 5.5899982811960420e+00 1 0 0
240 24 9 5.9999999999999998e-02 2.0388652721727709e+00 7.6548593639376570e+00 2.0700057717576188e+00 0 0 1
855 86 9 5.9999999999999998e-02 1.0288346779086327e+01 6.8212426786389297e+00 6.7997925982520595e+00 0 0 1
238 24 9 5.9999999999999998e-02 8.6443623462468067e-01 8.6765732032501628e+00 3.0427957474368408e+00 0 0 1
861 87 1 -1.7999999999999999e-01 1.0913276503007854e+01 6.2846099025966407e+00 1.8661772745387029e+00 0 1 1
1460 118 1 -1.7999999999999999e-01 1.3778625527782209e+00 1.4646334277747284e+00 6.6590645241998727e+00 1 0 0
818 82 9 5.9999999999999998e-02 1.9533985635325040e+00 2.6156921169990528e+00 2.5409806943929674e+00 0 1 0
411 42 1 -1.7999999999999999e-01 6.5094392426202514e+00 2.6779890970150215e+00 5.3702099570670123e+00 1 1 0
418 42 9 5.9999999999999998e-02 4.2581177466025100e+00 4.0314617123560534e+00 5.4756883963084135e+00 1 1 0
546 55 9 5.9999999999999998e-02 3.7951721938461951e+00 7.5866541329058199e+00 7.6898086236954155e+00 0 0 0
3389 189 3 5.9999999999999998e-02 4.2365548672334906e-02 8.8424572520326539e+00 6.3805637118697085e+00 1 0 0
817 82 9 5.9999999999999998e-02 3.1137171992605981e+00 7.5509754181055017e-02 3.6548784052847799e-01 0 1 0
859 86 9 5.9999999999999998e-02 6.7966491987428688e+00 8.1144528867907084e+00 4.8162062641270502e+00 0 0 1
813 82 8 -4.6999999999999997e-01 4.0896962014325027e+00 3.0748871134611098e+00 6.3613314720386405e-01 0 1 0
364 37 1 -1.7999999999999999e-01 1.1773205632398003e+01 3.2151197278521355e+00 5.1690692643666187e+00 1 1 1
811 82 1 -1.7999999999999999e-01 3.6635398924870568e+00 7.3885514172997313e-01 1.0132719034656172e+00 0 1 0
419 42 9 5.9999999999999998e-02 4.1938101399372174e+00 4.0417010557863380e+00 3.7378128210062225e+00 1 1 0
858 86 9 5.9999999999999998e-02 6.7365777032147740e+00 7.2697734202550208e+00 6.4361172656549908e+00 0 0 1
416 42 9 5.9999999999999998e-02 7.6092112824020699e+00 2.4589327439879778e+00 5.4402850154435987e+00 1 1 0
413 42 8 -4.6999999999999997e-01 7.0098938093484922e+00 4.9670362808006745e+00 4.8405667397654035e+00 1 1 0
3388 189 3 5.9999999999999998e-02 1.0845946851345329e+00 7.1465067146879111e+00 8.0717174644671523e+00 1 0 0
274 28 1 -1.7999999999999999e-01 6.0926029744449215e+00 5.9280966556249908e+00 1.2173726762741512e-01 0 0 1
1809 130 3 5.9999999999999998e-02 2.1216840979409990e+00 4.3460069357872939e+00 7.7048603583182675e+00 0 0 0
273 28 8 -4.6999999999999997e-01 5.0509165958036562e+00 7.9397875225163919e+00 3.9658284070376965e-01 0 0 1
1469 118 3 5.9999999999999998e-02 2.0622201314151187e+00 6.7735408136862596e-01 6.3548785984316769e+00 1 0 0
261 27 1 -1.7999999999999999e-01 9.4519195846719519e+00 1.8068655295658054e+00 7.7683952623803365e-01 0 0 1
277 28 9 5.9999999999999998e-02 3.1673263492277832e+00 5.6361016998090836e+00 9.3917764696463668e-01 0 0 1
1808 130 3 5.9999999999999998e-02 2.4443486850165677e+00 5.6719369285029959e+00 8.6832919707562652e+00 0 0 0
820 82 9 5.9999999999999998e-02 1.7366366598690666e+00 3.7113977472628519e+00 1.0657071707793502e+00 0 1 0
2333 150 3 5.9999999999999998e-02 6.6244145594693773e+00 8.9105633173707641e+00 2.4963803457295861e+00 0 0 0
232 24 7 4.6999999999999997e-01 2.9193226442277509e+00 8.6602160128345460e+00 3.8322569402082678e+00 0 0 1
233 24 8 -4.6999999999999997e-01 3.4587446005612126e+00 8.1318622955594009e+00 4.8160982414002831e+00 0 0 1
854 86 1 -1.7999999999999999e-01 7.2155802104183087e+00 8.0351981091570561e+00 5.7836468145353113e+00 0 0 1
366 37 9 5.9999999999999998e-02 1.2140924484326968e+01 5.0632113652155564e+00 7.3860450407865628e+00 1 1 1
417 42 9 5.9999999999999998e-02 5.9741873633666698e+00 1.8948103818744573e+00 4.9661148132273238e+00 1 1 0
819 82 9 5.9999999999999998e-02 1.0621017318653445e+00 2.1138389900988255e+00 1.1074980961976937e+00 0 1 0
866 87 9 5.9999999999999998e-02 1.0032371243734930e+01 6.7431063529121245e+00 2.1855930824206395e+00 0 1 1
862 87 7 4.6999999999999997e-01 1.2138626198883292e+01 6.7260584485888906e+00 2.6457190896232072e+00 0 1 1
814 82 1 -1.7999999999999999e-01 1.8967165149135987e+00 2.7004391958194915e+00 1.4253026898042402e+00 0 1 0
235 24 9 5.9999999999999998e-02 4.4116192698929995e+00 8.7250518974533282e+00 2.4431465242471067e+00 0 0 1
1806 130 3 5.9999999999999998e-02 4.4663070062142038e+00 5.1434059471057125e+00 7.3940587656090546e+00 0 0 0
545 55 9 5.9999999999999998e-02 2.4596474475760934e+00 8.6224505552384869e+00 7.5473228405515922e+00 0 0 0
1807 130 3 5.9999999999999998e-02 4.4564760647196477e+00 3.3773454022190879e+00 7.8516988066487476e+00 0 0 0
415 42 9 5.9999999999999998e-02 6.3253119543734586e+00 2.7795622495803327e+00 6.3860109778686391e+00 1 1 0
265 27 9 5.9999999999999998e-02 9.5313148323099544e+00 2.8839082946688643e+00 1.0228732173215334e+00 0 0 1
266 27 9 5.9999999999999998e-02 8.4833153733085336e+00 1.3691017082145576e+00 9.0182968775860950e-01 0 0 1
1470 118 3 5.9999999999999998e-02 1.3768049962838720e+00 2.3464258392536252e+00 6.0529377492151033e+00 1 0 0
262 27 7 4.6999999999999997e-01 1.0542407832053364e+01 1.0927573351845892e+00 1.5528164412890366e+00 0 0 1
857 86 9 5.9999999999999998e-02 8.7409613128642025e+00 7.1348779677569354e+00 7.7223388120481760e+00 0 0 1
3378 189 2 -1.2000000000000000e-01 2.2297502384900813e-02 7.7498066155143430e+00 6.3014233869458449e+00 1 0 0
3377 189 1 -1.7999999999999999e-01 1.2558853300364789e-01 7.1324972204200394e+00 7.6858081181680147e+00 1 0 0
414 42 1 -1.7999999999999999e-01 4.7753376401070291e+00 4.4324746873321228e+00 4.6379098620505390e+00 1 1 0
1471 118 3 5.9999999999999998e-02 1.8324719881241582e+00 1.7082239953999732e+00 7.6208456463103387e+00 1 0 0
812 82 7 4.6999999999999997e-01 3.2154231804680928e+00 2.2303018370482453e+00 8.1552690271901473e-01 0 1 0
867 87 9 5.9999999999999998e-02 1.0794626361776912e+01 5.1925239020873404e+00 1.9554721194103286e+00 0 1 1
234 24 1 -1.7999999999999999e-01 1.7450386965053328e+00 8.0182041384976799e+00 3.0865033615214443e+00 0 0 1
239 24 9 5.9999999999999998e-02 1.3711532853793342e+00 7.2049875653313293e+00 3.6546826687460308e+00 0 0 1
865 87 9 5.9999999999999998e-02 1.1089035672428995e+01 6.5396455435857401e+00 8.7981620758479229e-01 0 1 1
272 28 7 4.6999999999999997e-01 4.8606956258198872e+00 6.7899760959851196e+00 3.5215959517694390e-01 0 0 1
278 28 9 5.9999999999999998e-02 6.1446302107549382e+00 5.0012146128758053e+00 7.9651115149301333e-01 0 0 1
1790 130 2 -1.2000000000000000e-01 4.2665357557624972e+00 4.4073577932936914e+00 8.2165409299777039e+00 0 0 0
860 86 9 5.9999999999999998e-02 6.9460684681468008e+00 9.0569482281290092e+00 6.1462257113668626e+00 0 0 1
856 86 9 5.9999999999999998e-02 8.9209556832922434e+00 5.7410277010329294e+00 6.5590877919721438e+00 0 0 1
815 82 9 5.9999999999999998e-02 3.6871348381506159e+00 3.4629209652462267e-01 2.0419807913357846e+00 0 1 0
1791 130 6 1.4499999999999999e-01 2.7486308053621000e+00 4.6280375208784648e+00 8.4832068916656791e+00 0 0 0
541 55 1 -1.7999999999999999e-01 3.5052714948768684e+00 8.5973626663514580e+00 7.9455143856058710e+00 0 0 0
853 86 8 -4.6999999999999997e-01 9.4041817870290902e+00 8.0996499572016578e+00 4.7594244899240286e+00 0 0 1
1802 130 3 5.9999999999999998e-02 6.9012506778504763e+00 4.5614681299300868e+00 8.1640980537034444e+00 0 0 0
369 37 9 5.9999999999999998e-02 1.1196967992025980e+01 2.2279690874308282e+00 5.2604381295561051e+00 1 1 1
271 28 1 -1.7999999999999999e-01 3.5320147030561166e+00 6.1753846599962872e+00 7.1307253434311088e-02 0 0 1
2701 163 5 4.1799999999999998e-01 3.2458512345643604e+00 2.0021189874270542e+00 1.0071485806870539e+01 1 1 0
1440 117 6 1.4499999999999999e-01 1.9299446585503062e+00 6.2034869567600852e+00 1.1928887450947858e+01 1 0 0
1435 117 2 -1.2000000000000000e-01 4.5109513342681726e+00 2.8101189905113069e+00 1.6544805535119533e+01 1 0 0
90 9 9 5.9999999999999998e-02 1.0711435891787405e+01 2.9833814866047152e+00 1.4596723250716677e+01 0 0 1
1521 120 6 1.4499999999999999e-01 6.3917363637438074e+00 4.4662792852571148e-01 1.3273203504896907e+01 1 1 0
87 9 9 5.9999999999999998e-02 1.0071723013543096e+01 2.5066836258492815e+00 1.8153741592750979e+01 0 0 1
2191 145 2 -1.2000000000000000e-01 6.5560081728028150e+00 7.7472310815867376e+00 1.6827990099354846e+01 0 1 0
1532 120 3 5.9999999999999998e-02 1.0302713102193733e+01 1.8395094915996766e+00 1.1980103284132651e+01 1 1 0
1439 117 2 -1.2000000000000000e-01 2.0737248947977447e+00 5.0117663804804753e+00 1.2905205956938250e+01 1 0 0
1792 130 4 -6.8300000000000005e-01 2.1818853313572109e+00 3.7571927273346302e+00 9.4089450303114130e+00 0 0 0
1456 117 3 5.9999999999999998e-02 1.1553204056854476e+00 4.9525411437948677e+00 1.3473920772564854e+01 1 0 0
1447 117 3 5.9999999999999998e-02 4.7823353121306313e+00 1.9808531782830330e+00 1.5928908516032182e+01 1 0 0
1796 130 3 5.9999999999999998e-02 9.0326102230462570e+00 5.1707787394908618e+00 1.2570615983798428e+01 0 0 0
1453 117 3 5.9999999999999998e-02 4.2414462956020333e+00 5.6271458037797144e+00 1.3433720637447850e+01 1 0 0
88 9 9 5.9999999999999998e-02 9.4463448817189200e+00 3.8163519524601996e+00 1.5417069702434445e+01 0 0 1
1785 130 2 -1.2000000000000000e-01 9.5846106948705998e+00 5.3405384687690045e+00 1.1657337864050239e+01 0 0 0
770 77 9 5.9999999999999998e-02 2.2010475307822417e+00 1.3692054175715964e+00 1.6329177103533731e+01 1 1 1
1459 117 5 4.1799999999999998e-01 2.3134088588905174e-01 5.2870958259085565e+00 1.1628246726524324e+01 1 0 0
2206 145 3 5.9999999999999998e-02 4.6087794268663176e+00 7.6119220775826024e+00 1.6034234071646399e+01 0 1 0
1097 104 3 5.9999999999999998e-02 1.0548136596143223e+01 2.9953534411612454e-01 1.6929880240116848e+01 0 0 0
1933 135 3 5.9999999999999998e-02 3.5605686284942795e-01 2.8847424352546165e+00 1.7918808224511441e+01 0 0 0
1438 117 2 -1.2000000000000000e-01 3.3079690790760838e+00 5.2329933956675871e+00 1.3822315857904117e+01 1 0 0
542 55 7 4.6999999999999997e-01 3.5343231887787345e+00 8.9349705017471130e+00 9.4189182436608245e+00 0 0 0
85 9 9 5.9999999999999998e-02 9.9646469460119853e+00 4.3363686823257623e+00 1.7974599369153363e+01 0 0 1
1797 130 3 5.9999999999999998e-02 9.5226018541095563e+00 6.4468739095434326e+00 1.1448303389830569e+01 0 0 0
82 9 7 4.6999999999999997e-01 1.1268885677736705e+01 3.3701318291365343e+00 1.6627345795962608e+01 0 0 1
1518 120 2 -1.2000000000000000e-01 9.9705360416432551e+00 9.0372685940210862e-01 1.1598717176476352e+01 1 1 0
1455 117 3 5.9999999999999998e-02 2.0652575995470235e+00 4.0498403512744918e+00 1.2433866247075761e+01 1 0 0
1449 117 3 5.9999999999999998e-02 4.4606685248284705e+00 4.9745631554687852e+00 1.6356861161685917e+01 1 0 0
3186 181 3 5.9999999999999998e-02 1.1639066200811691e+01 8.5000666871642885e+00 1.1228203010341753e+01 0 0 0
1538 120 3 5.9999999999999998e-02 5.6819456981756007e+00 1.1494854956749703e+00 1.3656760028882667e+01 1 1 0
1451 117 3 5.9999999999999998e-02 3.6285138368139718e+00 3.0554766729937066e+00 1.4158596836480516e+01 1 0 0
1788 130 2 -1.2000000000000000e-01 6.6028264891894066e+00 4.3368296311087793e+00 9.1954063988606478e+00 0 0 0
2198 145 3 5.9999999999999998e-02 9.4312374381105357e+00 6.1280340610995774e+00 1.6021258934847253e+01 0 1 0
84 9 1 -1.7999999999999999e-01 1.0222463129248526e+01 3.0777066181679382e+00 1.5580331306760486e+01 0 0 1
762 77 7 4.6999999999999997e-01 6.7304003045943828e-01 1.0183887515817127e+00 1.4786993025186442e+01 1 1 1
1434 117 2 -1.2000000000000000e-01 5.5609691311415448e+00 2.6461209241037511e+00 1.7579200873622948e+01 1 0 0
1436 117 2 -1.2000000000000000e-01 4.5799957941168916e+00 4.1180929262832136e+00 1.5728242519396876e+01 1 0 0
1437 117 2 -1.2000000000000000e-01 3.4853908668562221e+00 4.0060882838024163e+00 1.4731798136227100e+01 1 0 0
1454 117 3 5.9999999999999998e-02 3.1315454080649481e+00 6.1896075361054512e+00 1.4454504269304275e+01 1 0 0
1450 117 3 5.9999999999999998e-02 5.5242369042050452e+00 4.2782575939192240e+00 1.5277147888536877e+01 1 0 0
2078 140 3 5.9999999999999998e-02 2.8796439381061123e-01 9.0253293780547938e+00 1.2807891451617131e+01 0 0 0
1800 130 3 5.9999999999999998e-02 6.8664511036999381e+00 4.6426537399754073e+00 1.1227337082089624e+01 0 0 0
1458 117 3 5.9999999999999998e-02 2.8175849461209537e+00 6.3844450382319513e+00 1.1349308056114488e+01 1 0 0
2202 145 3 5.9999999999999998e-02 7.0870453553261212e+00 6.0721922242796529e+00 1.5614381403143057e+01 0 1 0
2205 145 3 5.9999999999999998e-02 5.6238364782568135e+00 8.4901203030654226e+00 1.4851022049015182e+01 0 1 0
1444 117 3 5.9999999999999998e-02 5.4089885754664602e+00 5.8663681011511826e-01 1.7967152850976525e+01 1 0 0
1803 130 3 5.9999999999999998e-02 6.6905190170408373e+00 3.2373907249843374e+00 9.2409767867007719e+00 0 0 0
1801 130 3 5.9999999999999998e-02 7.3800491711996266e+00 6.0828943394186012e+00 1.0192041423355215e+01 0 0 0
1537 120 3 5.9999999999999998e-02 7.1766645354514997e+00 1.6909973042645925e+00 1.1650659586346446e+01 1 1 0
1520 120 2 -1.2000000000000000e-01 7.5669935243680744e+00 1.2593550169976253e+00 1.2603439386631415e+01 1 1 0
2683 163 4 -6.8300000000000005e-01 3.6379570075885894e+00 1.4602701672101410e+00 1.0772071627580280e+01 1 1 0
1441 117 4 -6.8300000000000005e-01 9.0536024752263833e-01 5.7019242440634867e+00 1.1100148920322988e+01 1 0 0
1452 117 3 5.9999999999999998e-02 2.5967879926211466e+00 3.9719256976336665e+00 1.5289218966995463e+01 1 0 0
1448 117 3 5.9999999999999998e-02 3.4770090277537178e+00 2.7651326715328777e+00 1.6993705032142618e+01 1 0 0
2697 163 3 5.9999999999999998e-02 2.0389409543416974e+00 1.8862716136267924e-01 1.2229030785078454e+01 1 1 0
544 55 1 -1.7999999999999999e-01 4.9148428078622182e+00 9.0983794212467313e+00 1.0032012545194208e+01 0 0 0
1804 130 3 5.9999999999999998e-02 5.0045664170959911e+00 5.7748216460999453e+00 9.7036012637705475e+00 0 0 0
83 9 8 -4.6999999999999997e-01 1.2063812912018815e+01 4.2749623388153966e+00 1.6343350386443479e+01 0 0 1
1793 130 3 5.9999999999999998e-02 1.1709087313684829e+01 4.9038737232326017e+00 1.1166190799186239e+01 0 0 0
1798 130 3 5.9999999999999998e-02 9.4046768951918764e+00 4.7452311192574825e+00 9.5929445536670634e+00 0 0 0
1787 130 2 -1.2000000000000000e-01 7.4383741901807392e+00 4.9561587506077132e+00 1.0293566732846161e+01 0 0 0
1789 130 2 -1.2000000000000000e-01 5.0926392183457283e+00 4.7196460928693691e+00 9.4053008513721803e+00 0 0 0
1805 130 3 5.9999999999999998e-02 4.6798974893064758e+00 4.1243754508359958e+00 1.0294975141623928e+01 0 0 0
2682 163 6 1.4499999999999999e-01 3.3285949514644289e+00 5.7229138181189382e-02 1.0464866098875916e+01 1 1 0
1810 130 5 4.1799999999999998e-01 1.5620678463264228e+00 4.3418080375755030e+00 9.9186587709603096e+00 0 0 0
2203 145 3 5.9999999999999998e-02 6.0920728059093481e+00 7.0769084953695369e+00 1.7592834999535171e+01 0 1 0
1786 130 2 -1.2000000000000000e-01 8.9309706990334448e+00 4.5101775468290359e+00 1.0498822531956993e+01 0 0 0
1536 120 3 5.9999999999999998e-02 8.0173950748310769e+00 1.9933632658483871e+00 1.3317155109234557e+01 1 1 0
2190 145 2 -1.2000000000000000e-01 7.5202045701572198e+00 6.9832971603257903e+00 1.5952603617053411e+01 0 1 0
2201 145 3 5.9999999999999998e-02 7.7973949273006582e+00 7.5557979878476740e+00 1.5036053632944411e+01 0 1 0
1519 120 2 -1.2000000000000000e-01 8.7443333046798344e+00 2.1609942709009422e-01 1.2263620686389531e+01 1 1 0
550 55 9 5.9999999999999998e-02 5.4805754149532566e+00 8.1309270610005644e+00 1.0037650540841113e+01 0 0 0
1799 130 3 5.9999999999999998e-02 9.1530443263439007e+00 3.5067413310934143e+00 1.0587532131215983e+01 0 0 0
1445 117 3 5.9999999999999998e-02 5.5867235915409008e+00 3.5536752536851814e+00 1.8235931445982295e+01 1 0 0
2204 145 3 5.9999999999999998e-02 7.0226207603653510e+00 8.5355676475267703e+00 1.7352441957615099e+01 0 1 0
89 9 9 5.9999999999999998e-02 9.6494833012911947e+00 2.2085253854985494e+00 1.5882374474678324e+01 0 0 1
1533 120 3 5.9999999999999998e-02 9.5332944303651939e+00 1.2698926423453394e+00 1.0678878121560755e+01 1 1 0
81 9 1 -1.7999999999999999e-01 1.0603545737189393e+01 3.4623400925697299e+00 1.7993573437925850e+01 0 0 1
1457 117 3 5.9999999999999998e-02 1.6285415880888972e+00 7.1474112855804277e+00 1.2338689781707149e+01 1 0 0
1784 130 1 -1.7999999999999999e-01 1.1021837003840872e+01 4.9114126311023965e+00 1.1998933042832336e+01 0 0 0
1795 130 3 5.9999999999999998e-02 1.1075056030426319e+01 3.8882529393016516e+00 1.2344151136359498e+01 0 0 0
761 77 1 -1.7999999999999999e-01 3.3306148369023031e-01 2.3610615215227759e+00 1.4031724219422559e+01 1 1 1
1446 117 3 5.9999999999999998e-02 6.5505481604691385e+00 2.6242533047632928e+00 1.7076444498282022e+01 1 0 0
765 77 9 5.9999999999999998e-02 7.2965311853813064e-01 3.2269340868022467e+00 1.4567515912319779e+01 1 1 1
2695 163 3 5.9999999999999998e-02 4.9624021442826727e-01 8.2034579630214355e-01 1.0337196174585056e+01 1 1 0
1941 135 3 5.9999999999999998e-02 2.7994213916729831e+00 7.9375936209507607e+00 1.8167357915410136e+01 0 0 0
767 77 9 5.9999999999999998e-02 9.8031262944028352e-01 2.2322609266261217e+00 1.3180255399019771e+01 1 1 1
1937 135 3 5.9999999999999998e-02 1.1730169994237245e+00 5.2909104699143041e+00 1.7771771627956745e+01 0 0 0
1530 120 3 5.9999999999999998e-02 1.1873161360536589e+01 5.7100837350624056e-01 1.0617096905992646e+01 1 1 0
1794 130 3 5.9999999999999998e-02 1.1507594229652431e+01 5.4166485716171122e+00 1.2795159667385718e+01 0 0 0
2189 145 1 -1.7999999999999999e-01 8.7884364334615697e+00 6.6739052603318978e+00 1.6744747010477571e+01 0 1 0
2199 145 3 5.9999999999999998e-02 9.2865956565312242e+00 7.5417688327400230e+00 1.7176659053827166e+01 0 1 0
2200 145 3 5.9999999999999998e-02 8.6611278479541909e+00 5.9713191387280755e+00 1.7556914508620064e+01 0 1 0
768 77 9 5.9999999999999998e-02 2.6791734243859606e+00 1.4690822195969890e+00 1.4650479539196658e+01 1 1 1
2192 145 2 -1.2000000000000000e-01 5.4244964625860375e+00 8.3016070883329860e+00 1.5951344746947331e+01 0 1 0
3168 181 6 1.4499999999999999e-01 1.1735829163605576e+01 9.1413731463405323e+00 1.0355022109526095e+01 0 0 0
764 77 1 -1.7999999999999999e-01 2.0746037772785626e+00 8.8268107391496475e-01 1.5355304759881742e+01 1 1 1
543 55 8 -4.6999999999999997e-01 2.5492687637270315e+00 8.7246942779389105e+00 1.0183764463934365e+01 0 0 0
3185 181 3 5.9999999999999998e-02 1.1315258888313389e+01 8.5873690437233670e+00 9.5141283242660322e+00 0 0 0
1517 120 2 -1.2000000000000000e-01 1.1124697309643061e+01 1.7793674906059209e-02 1.1215450705545324e+01 1 1 0
1098 104 3 5.9999999999999998e-02 1.2209173991983016e+01 9.8102140016140493e-01 1.8240466120563724e+01 0 0 0
1921 135 2 -1.2000000000000000e-01 5.3420801571386411e-01 2.7399279081449621e+00 1.8987016038883809e+01 0 0 0
1140 106 2 -1.2000000000000000e-01 8.4335715678579621e+00 7.4877284805965534e+00 2.1543017508923086e+01 0 0 0
1936 135 3 5.9999999999999998e-02 2.6024821445262138e+00 3.1849293020837188e+00 1.8986606399776264e+01 0 0 0
838 84 9 5.9999999999999998e-02 3.9370549160535417e+00 8.6015651502029158e+00 2.6000019949317739e+01 0 0 0
1922 135 2 -1.2000000000000000e-01 1.6865592531585518e+00 3.6747492478638879e+00 1.9340075997343348e+01 0 0 0
1442 117 3 5.9999999999999998e-02 6.0663167722258136e+00 1.4084702583154025e+00 1.9333547726471270e+01 1 0 0
1926 135 6 1.4499999999999999e-01 3.7070806614154179e+00 8.2641096035638153e+00 2.0084615236434495e+01 0 0 0
1925 135 2 -1.2000000000000000e-01 2.6612362297898184e+00 7.4859896180697119e+00 1.9214329349928043e+01 0 0 0
1152 106 3 5.9999999999999998e-02 1.0507717577267821e+01 7.8274952113265046e+00 2.0743587430704164e+01 0 0 0
1939 135 3 5.9999999999999998e-02 3.7550396341186625e+00 5.7382969766753567e+00 1.8656141867449023e+01 0 0 0
2866 170 2 -1.2000000000000000e-01 2.0314922782789321e-01 4.6738577189286410e+00 2.5528820877223538e+01 1 1 0
676 68 9 5.9999999999999998e-02 6.5533723965867150e+00 5.0400705821747334e+00 2.1248013277064480e+01 1 0 -1
1938 135 3 5.9999999999999998e-02 7.8390203404941905e-01 5.6474834592096297e+00 1.9297725663032395e+01 0 0 0
839 84 9 5.9999999999999998e-02 2.4963860724941447e+00 8.6982102729954693e+00 2.5041064089381841e+01 0 0 0
1931 135 3 5.9999999999999998e-02 7.8124758510266734e-01 1.1972040717670249e+00 2.0431431591380612e+01 0 0 0
1138 106 2 -1.2000000000000000e-01 1.0787932605654653e+01 6.8024416606263101e+00 2.2632687859598587e+01 0 0 0
1139 106 2 -1.2000000000000000e-01 9.9438079227495226e+00 7.1093042500780967e+00 2.1295845645612250e+01 0 0 0
677 68 9 5.9999999999999998e-02 4.9592279775248596e+00 5.2528612281999179e+00 2.2005537322165669e+01 1 0 -1
2882 170 3 5.9999999999999998e-02 2.8577851698515455e+00 3.6479590069769836e+00 2.5468084567027837e+01 1 1 0
3197 182 3 5.9999999999999998e-02 9.4092662383118117e+00 4.9336862411318165e+00 2.7253583823783007e+01 0 0 0
1920 135 2 -1.2000000000000000e-01 8.3668987628811931e-01 1.2665805899185718e+00 1.9357300424992054e+01 0 0 0
834 84 1 -1.7999999999999999e-01 3.5283858626046709e+00 8.5771272190447476e+00 2.4934645350160004e+01 0 0 0
1940 135 3 5.9999999999999998e-02 3.2479123528082212e+00 5.7229499020504706e+00 2.0326134642987412e+01 0 0 0
836 84 9 5.9999999999999998e-02 2.5440463593258995e+00 5.7720787133935287e+00 2.4363157893910873e+01 0 0 0
3199 182 3 5.9999999999999998e-02 8.8315584967899312e+00 6.5881502090970274e+00 2.6983227020610997e+01 0 0 0
1157 106 3 5.9999999999999998e-02 7.4110127038699583e+00 8.7855364443401616e+00 2.2853155790883314e+01 0 0 0
672 68 7 4.6999999999999997e-01 6.0888515063242581e+00 3.6357319051293433e+00 2.2772023396472683e+01 1 0 -1
674 68 1 -1.7999999999999999e-01 5.1979799478735691e+00 2.5289290304751693e+00 2.3188417214689991e+01 1 0 -1
1932 135 3 5.9999999999999998e-02 1.7986194480734981e+00 9.2272963459170176e-01 1.8997504002366320e+01 0 0 0
673 68 8 -4.6999999999999997e-01 7.2292582761656528e+00 3.7400277209136976e+00 2.3287551960120314e+01 1 0 -1
1154 106 3 5.9999999999999998e-02 7.8215840463941655e+00 7.2270816791884940e+00 2.0685092424857366e+01 0 0 0
1443 117 3 5.9999999999999998e-02 4.2589341026756538e+00 1.5655755139726593e+00 1.8988519464850519e+01 1 0 0
1923 135 2 -1.2000000000000000e-01 1.6008002923560545e+00 5.1555609226768260e+00 1.8772612866024375e+01 0 0 0
1155 106 3 5.9999999999999998e-02 7.9110453787879234e+00 6.7138494024193278e+00 2.2242422445171442e+01 0 0 0
1433 117 1 -1.7999999999999999e-01 5.3127388780279947e+00 1.4804646182929708e+00 1.8513104429161064e+01 1 0 0
675 68 9 5.9999999999999998e-02 5.1028496576094717e+00 3.9771900209839490e+00 2.0999543993476422e+01 1 0 -1
1151 106 3 5.9999999999999998e-02 1.0919764227373538e+01 7.8133892659625310e+00 2.3100744636457765e+01 0 0 0
831 84 1 -1.7999999999999999e-01 3.5310882624679820e+00 6.0134293117560516e+00 2.4639086093423071e+01 0 0 0
671 68 1 -1.7999999999999999e-01 5.6309374854449468e+00 4.5231095370600451e+00 2.1713718209359026e+01 1 0 -1
1943 135 3 5.9999999999999998e-02 3.5329311728590076e+00 8.0047126382952847e+00 2.1065886572602132e+01 0 0 0
1924 135 2 -1.2000000000000000e-01 2.8485099676180328e+00 5.9596156179558024e+00 1.9245999367253976e+01 0 0 0
1153 106 3 5.9999999999999998e-02 9.8836131267960852e+00 6.2778020378203445e+00 2.0711800270104799e+01 0 0 0
1944 135 3 5.9999999999999998e-02 4.7230175721034096e+00 7.9309751192468374e+00 1.9960943295210409e+01 0 0 0
1942 135 3 5.9999999999999998e-02 1.6980484429246716e+00 7.7258838279641386e+00 1.9467473828908503e+01 0 0 0
678 68 9 5.9999999999999998e-02 4.5124935391988004e+00 2.2772650900319316e+00 2.2317720473730262e+01 1 0 -1
679 68 9 5.9999999999999998e-02 4.6179930716878230e+00 2.8196190460854966e+00 2.3949756587047876e+01 1 0 -1
680 68 9 5.9999999999999998e-02 5.7624231788809643e+00 1.6253094567260322e+00 2.3620193742705982e+01 1 0 -1
837 84 9 5.9999999999999998e-02 3.5535651679851035e+00 6.1057261550157120e+00 2.5718998860802813e+01 0 0 0
2881 170 3 5.9999999999999998e-02 3.4323163597299383e-01 2.5903088723623831e+00 2.5349210056170563e+01 1 1 0
833 84 8 -4.6999999999999997e-01 4.9478459327452979e+00 7.4892084804346908e+00 2.3332817001975510e+01 0 0 0
1150 106 3 5.9999999999999998e-02 1.0152448638766975e+01 6.2541781151420013e+00 2.3331012140566571e+01 0 0 0
2886 170 3 5.9999999999999998e-02 4.6541085448726029e+00 2.2149668774375999e+00 2.6223302649370005e+01 1 1 0
1137 106 2 -1.2000000000000000e-01 1.2114179313295296e+01 6.0270836978199629e+00 2.2324211448350624e+01 0 0 0
835 84 9 5.9999999999999998e-02 4.1875625687193452e+00 5.2496617981382006e+00 2.4292973914591268e+01 0 0 0
2879 170 3 5.9999999999999998e-02 8.6297550381363164e-01 5.4221760616914203e+00 2.6026057767489664e+01 1 1 0
2867 170 2 -1.2000000000000000e-01 6.8214956503148694e-01 3.3473194099518686e+00 2.6021487241218900e+01 1 1 0
2868 170 2 -1.2000000000000000e-01 2.1977039956016498e+00 3.3150444130372514e+00 2.6321076138415183e+01 1 1 0
832 84 7 4.6999999999999997e-01 4.0817611115029715e+00 7.4229208828129476e+00 2.4226887357225596e+01 0 0 0
86 9 9 5.9999999999999998e-02 1.1342009104092000e+01 3.5676081074557273e+00 1.8814951310525384e+01 0 0 1
2880 170 3 5.9999999999999998e-02 8.4963952105523585e-02 3.2782911727808064e+00 2.6952840443327393e+01 1 1 0
2884 170 3 5.9999999999999998e-02 2.4657824477651382e+00 1.1093211672940073e+00 2.5995846556970587e+01 1 1 0
1094 104 3 5.9999999999999998e-02 9.7480511237249168e+00 4.3323829371524035e-02 1.9382803074633593e+01 0 0 0
2878 170 3 5.9999999999999998e-02 4.9967997458362384e-01 4.6526122064466913e+00 2.4443861605198212e+01 1 1 0
1149 106 3 5.9999999999999998e-02 1.1936642545370626e+01 5.0982514772335996e+00 2.1765864918753376e+01 0 0 0
1141 106 2 -1.2000000000000000e-01 8.1038014748874510e+00 8.8879586786816205e+00 2.2028448120405002e+01 0 0 0
2822 168 3 5.9999999999999998e-02 1.0387116524588185e+01 1.2425199853317512e+00 2.6635268172798071e+01 0 0 0
2869 170 2 -1.2000000000000000e-01 2.6090945164644390e+00 1.8502075666951112e+00 2.6781359402219493e+01 1 1 0
1935 135 3 5.9999999999999998e-02 1.7165795273358870e+00 3.6377337751881607e+00 2.0427077437386508e+01 0 0 0
2870 170 2 -1.2000000000000000e-01 4.1120481906641944e+00 1.9600007384329858e+00 2.7111938600985475e+01 1 1 0
2883 170 3 5.9999999999999998e-02 2.4875167536067311e+00 4.0124288046014520e+00 2.7056220471729286e+01 1 1 0
1236 109 3 5.9999999999999998e-02 4.0405935071953083e+00 5.9075912876083212e+00 3.2879238232426246e+01 1 1 0
1226 109 3 5.9999999999999998e-02 3.9137478156647059e+00 1.4128453817644937e+00 3.2697909178706553e+01 1 1 0
3189 182 2 -1.2000000000000000e-01 9.0698924291378074e+00 6.1467743335244691e+00 2.9115094463323331e+01 0 0 0
1231 109 3 5.9999999999999998e-02 3.7543892590599217e+00 3.7649446461301426e+00 3.3899302858085463e+01 1 1 0
2889 170 3 5.9999999999999998e-02 4.1807984414670534e+00 1.5123385545078419e-01 2.8303155054474939e+01 1 1 0
1235 109 3 5.9999999999999998e-02 3.5399373321394849e+00 4.8294861806706955e+00 3.1542019376350620e+01 1 1 0
1239 109 3 5.9999999999999998e-02 3.4845378599360388e+00 6.7739198291743197e+00 2.9723700272137165e+01 1 1 0
1285 111 3 5.9999999999999998e-02 1.5627325611512310e+00 3.2032104605051609e-01 3.5613863724966315e+01 1 1 0
1241 109 3 5.9999999999999998e-02 5.6100312906229997e+00 9.0990844578398615e+00 3.0012835785334133e+01 1 1 0
3203 182 3 5.9999999999999998e-02 1.0316077638333430e+01 4.4986915231702564e+00 2.9631324458637323e+01 0 0 0
1227 109 3 5.9999999999999998e-02 5.5752054801028308e+00 1.4120876474264252e+00 3.1989480230471727e+01 1 1 0
3208 182 3 5.9999999999999998e-02 1.0576004912490040e+01 3.3985197200992774e+00 3.4174471955023179e+01 0 0 0