acetone_octanol_25p.data - created by mBuild; units = real

2850 atoms
2650 bonds
4700 angles
5100 dihedrals
0 impropers

9 atom types
11 bond types
18 angle types
17 dihedral types

0.000000 40.000000 xlo xhi
0.000000 40.000000 ylo yhi
0.000000 40.000000 zlo zhi

Masses

1	12.010780	# opls_135
2	12.010780	# opls_136
3	1.007947	# opls_140
4	15.999430	# opls_154
5	1.007947	# opls_155
6	12.010780	# opls_157
7	12.010780	# opls_280
8	15.999430	# opls_281
9	1.007947	# opls_282

Pair Coeffs # lj
#	epsilon (kcal/mol)		sigma (Angstrom)
1	0.06600		3.50000		# opls_135
2	0.06600		3.50000		# opls_136
3	0.03000		2.50000		# opls_140
4	0.17000		3.12000		# opls_154
5	0.00000		10.00000		# opls_155
6	0.06600		3.50000		# opls_157
7	0.10500		3.75000		# opls_280
8	0.21000		2.96000		# opls_281
9	0.01500		2.42000		# opls_282

Bond Coeffs # harmonic
#	k(kcal/mol/angstrom^2)		req(angstrom)
1	317.0		1.522		# opls_135	opls_280
2	570.0		1.229		# opls_280	opls_281
3	340.0		1.09		# opls_135	opls_282
4	268.0		1.529		# opls_135	opls_136
5	268.0		1.529		# opls_136	opls_136
6	268.0		1.529		# opls_136	opls_157
7	320.0		1.41		# opls_154	opls_157
8	340.0		1.09		# opls_135	opls_140
9	340.0		1.09		# opls_136	opls_140
10	340.0		1.09		# opls_140	opls_157
11	553.0		0.945		# opls_154	opls_155

Angle Coeffs # harmonic
#	k(kcal/mol/rad^2)		theteq(deg)
1	80.0		120.40000	# opls_135	opls_280	opls_281
2	70.0		116.00000	# opls_135	opls_280	opls_135
3	35.0		109.50000	# opls_280	opls_135	opls_282
4	33.0		107.80000	# opls_282	opls_135	opls_282
5	58.35		112.70000	# opls_135	opls_136	opls_136
6	37.5		110.70000	# opls_135	opls_136	opls_140
7	37.5		110.70000	# opls_136	opls_135	opls_140
8	58.35		112.70000	# opls_136	opls_136	opls_136
9	37.5		110.70000	# opls_136	opls_136	opls_140
10	58.35		112.70000	# opls_136	opls_136	opls_157
11	50.0		109.50000	# opls_136	opls_157	opls_154
12	37.5		110.70000	# opls_136	opls_157	opls_140
13	37.5		110.70000	# opls_140	opls_136	opls_157
14	55.0		108.50000	# opls_155	opls_154	opls_157
15	35.0		109.50000	# opls_140	opls_157	opls_154
16	33.0		107.80000	# opls_140	opls_135	opls_140
17	33.0		107.80000	# opls_140	opls_136	opls_140
18	33.0		107.80000	# opls_140	opls_157	opls_140

Dihedral Coeffs # opls
#	f1(kcal/mol)	f2(kcal/mol)	f3(kcal/mol)	f4(kcal/mol)
1	0.00000	-0.00000		0.27500		-0.00000	# opls_135	opls_280	opls_135	opls_282
2	-0.00000	-0.00000		-0.00000		-0.00000	# opls_281	opls_280	opls_135	opls_282
3	1.30000	-0.05000		0.20000		-0.00000	# opls_135	opls_136	opls_136	opls_136
4	-0.00000	-0.00000		0.30000		-0.00000	# opls_135	opls_136	opls_136	opls_140
5	1.30000	-0.05000		0.20000		-0.00000	# opls_136	opls_136	opls_136	opls_136
6	-0.00000	-0.00000		0.30000		-0.00000	# opls_136	opls_136	opls_136	opls_140
7	-0.00000	-0.00000		0.30000		-0.00000	# opls_136	opls_136	opls_135	opls_140
8	1.30000	-0.05000		0.20000		-0.00000	# opls_136	opls_136	opls_136	opls_157
9	1.71100	-0.50000		0.66300		-0.00000	# opls_136	opls_136	opls_157	opls_154
10	-0.00000	-0.00000		0.30000		-0.00000	# opls_136	opls_136	opls_157	opls_140
11	-0.35600	-0.17400		0.49200		-0.00000	# opls_136	opls_157	opls_154	opls_155
12	-0.00000	-0.00000		0.30000		-0.00000	# opls_157	opls_136	opls_136	opls_140
13	0.00000	-0.00000		0.46800		-0.00000	# opls_154	opls_157	opls_136	opls_140
14	-0.00000	-0.00000		0.30000		-0.00000	# opls_140	opls_135	opls_136	opls_140
15	-0.00000	-0.00000		0.30000		-0.00000	# opls_140	opls_136	opls_136	opls_140
16	-0.00000	-0.00000		0.30000		-0.00000	# opls_140	opls_136	opls_157	opls_140
17	0.00000	-0.00000		0.45000		-0.00000	# opls_140	opls_157	opls_154	opls_155

Atoms # full

1	1	1	-0.180000	23.942014	21.353768	18.559061
2	1	7	0.470000	25.305851	20.900692	18.136398
3	1	8	-0.470000	25.652792	21.039860	16.973610
4	1	1	-0.180000	26.244357	20.280120	19.126323
5	1	9	0.060000	23.170891	20.806899	17.977071
6	1	9	0.060000	23.836604	22.442859	18.371502
7	1	9	0.060000	23.778633	21.159551	19.640357
8	1	9	0.060000	27.204709	20.006801	18.639085
9	1	9	0.060000	25.784882	19.363381	19.551476
10	1	9	0.060000	26.450748	20.999717	19.945997
11	2	1	-0.180000	19.739813	30.645309	31.294136
12	2	7	0.470000	20.183219	32.071625	31.180164
13	2	8	-0.470000	19.397185	32.916034	30.778994
14	2	1	-0.180000	21.579247	32.468640	31.553444
15	2	9	0.060000	19.424415	30.272526	30.297158
16	2	9	0.060000	18.883396	30.576555	31.997152
17	2	9	0.060000	20.564568	30.004098	31.671287
18	2	9	0.060000	21.729964	33.559519	31.406315
19	2	9	0.060000	22.305419	31.918108	30.919511
20	2	9	0.060000	21.764275	32.222207	32.619896
21	3	1	-0.180000	4.269401	22.727268	8.799455
22	3	7	0.470000	4.414710	22.138261	10.169100
23	3	8	-0.470000	3.876395	21.072443	10.426124
24	3	1	-0.180000	5.212917	22.844666	11.222529
25	3	9	0.060000	3.195269	22.904935	8.582465
26	3	9	0.060000	4.682536	22.024390	8.046003
27	3	9	0.060000	4.813859	23.692454	8.724643
28	3	9	0.060000	5.211867	22.265324	12.170548
29	3	9	0.060000	4.773560	23.845911	11.414250
30	3	9	0.060000	6.261170	22.965163	10.877664
31	4	1	-0.180000	28.965295	20.017006	30.374467
32	4	7	0.470000	27.766641	19.324105	30.946386
33	4	8	-0.470000	26.780029	19.978157	31.247426
34	4	1	-0.180000	27.769169	17.839545	31.151152
35	4	9	0.060000	29.345334	20.764902	31.101537
36	4	9	0.060000	28.683029	20.533674	29.433304
37	4	9	0.060000	29.774685	19.289056	30.154030
38	4	9	0.060000	26.802641	17.500833	31.581822
39	4	9	0.060000	28.588353	17.560599	31.846430
40	4	9	0.060000	27.925895	17.329318	30.177813
41	5	1	-0.180000	13.247572	32.275403	28.931201
42	5	7	0.470000	13.966173	32.514893	27.638826
43	5	8	-0.470000	15.187212	32.495430	27.616537
44	5	1	-0.180000	13.200566	32.777258	26.377532
45	5	9	0.060000	13.546176	33.046565	29.671845
46	5	9	0.060000	13.511514	31.271009	29.323545
47	5	9	0.060000	12.147458	32.325226	28.786693
48	5	9	0.060000	13.893129	32.931452	25.522570
49	5	9	0.060000	12.577440	33.687446	26.502260
50	5	9	0.060000	12.542771	31.911480	26.153880
51	6	1	-0.180000	23.950631	18.097162	17.653758
52	6	7	0.470000	23.302612	18.113672	16.303287
53	6	8	-0.470000	23.878371	17.606083	15.353198
54	6	1	-0.180000	21.957818	18.746188	16.110142
55	6	9	0.060000	24.922746	18.631214	17.606956
56	6	9	0.060000	24.125723	17.047536	17.970045
57	6	9	0.060000	23.304924	18.595041	18.407942
58	6	9	0.060000	21.634590	18.665852	15.050213
59	6	9	0.060000	22.007249	19.819520	16.389068
60	6	9	0.060000	21.210043	18.235477	16.752241
61	7	1	-0.180000	9.148369	36.468462	11.264882
62	7	7	0.470000	10.608945	36.482022	10.932454
63	7	8	-0.470000	11.141619	37.530766	10.603504
64	7	1	-0.180000	11.418465	35.222686	11.000307
65	7	9	0.060000	8.562894	36.807353	10.384666
66	7	9	0.060000	8.954113	37.152206	12.117623
67	7	9	0.060000	8.816032	35.445916	11.543390
68	7	9	0.060000	12.475887	35.420060	10.722314
69	7	9	0.060000	10.998246	34.471277	10.299533
70	7	9	0.060000	11.389555	34.816209	12.032889
71	8	1	-0.180000	6.853993	11.593710	23.479554
72	8	7	0.470000	8.006115	11.200631	22.606584
73	8	8	-0.470000	8.846127	10.422994	23.032583
74	8	1	-0.180000	8.135130	11.752589	21.219302
75	8	9	0.060000	7.234576	12.081447	24.401334
76	8	9	0.060000	6.272578	10.690001	23.758254
77	8	9	0.060000	6.181801	12.302642	22.951172
78	8	9	0.060000	9.044678	11.354037	20.721047
79	8	9	0.060000	8.207080	12.859446	21.263756
80	8	9	0.060000	7.244861	11.467679	20.620528
81	9	1	-0.180000	22.417685	30.637458	22.838246
82	9	7	0.470000	21.034736	30.099168	22.634111
83	9	8	-0.470000	20.146510	30.848691	22.258502
84	9	1	-0.180000	20.734133	28.652862	22.886486
85	9	9	0.060000	22.395585	31.439929	23.605032
86	9	9	0.060000	22.799332	31.055576	21.883296
87	9	9	0.060000	23.107270	29.836154	23.178834
88	9	9	0.060000	19.663936	28.433108	22.684583
89	9	9	0.060000	20.956984	28.405125	23.945376
90	9	9	0.060000	21.360825	28.020683	22.223243
91	10	1	-0.180000	16.388629	20.263330	23.639977
92	10	7	0.470000	17.420913	21.229119	24.135571
93	10	8	-0.470000	18.417132	21.443381	23.462182
94	10	1	-0.180000	17.240875	21.931851	25.446909
95	10	9	0.060000	16.848804	19.261790	23.507445
96	10	9	0.060000	15.988842	20.613158	22.665195
97	10	9	0.060000	15.548452	20.178322	24.361428
98	10	9	0.060000	18.099584	22.606270	25.652231
99	10	9	0.060000	17.169737	21.183767	26.263973
100	10	9	0.060000	16.309578	22.535446	25.421529
101	11	1	-0.180000	24.073631	29.505635	4.799053
102	11	7	0.470000	22.803974	28.882672	4.305231
103	11	8	-0.470000	22.807471	27.716743	3.941349
104	11	1	-0.180000	21.534030	29.676731	4.254589
105	11	9	0.060000	24.841094	29.472377	3.997615
106	11	9	0.060000	24.444298	28.945252	5.682788
107	11	9	0.060000	23.906862	30.564228	5.090915
108	11	9	0.060000	20.698660	29.057043	3.864049
109	11	9	0.060000	21.669847	30.554929	3.589303
110	11	9	0.060000	21.272960	30.027683	5.274863
111	12	1	-0.180000	23.684711	25.368999	15.488141
112	12	7	0.470000	22.237985	25.535267	15.136982
113	12	8	-0.470000	21.930321	25.920838	14.019623
114	12	1	-0.180000	21.169178	25.233050	16.143049
115	12	9	0.060000	24.208028	26.342261	15.381789
116	12	9	0.060000	24.150758	24.627575	14.805867
117	12	9	0.060000	23.799066	25.013811	16.534267
118	12	9	0.060000	20.161307	25.411810	15.711055
119	12	9	0.060000	21.298693	25.885451	17.031802
120	12	9	0.060000	21.241410	24.170371	16.455746
121	13	1	-0.180000	7.889507	14.232045	9.716302
122	13	7	0.470000	8.740536	15.312340	9.122426
123	13	8	-0.470000	9.414330	16.019330	9.855896
124	13	1	-0.180000	8.771131	15.531198	7.640191
125	13	9	0.060000	7.152662	14.680296	10.415258
126	13	9	0.060000	8.530605	13.515907	10.271773
127	13	9	0.060000	7.340916	13.680532	8.923526
128	13	9	0.060000	9.452558	16.369548	7.380952
129	13	9	0.060000	7.750308	15.774447	7.278206
130	13	9	0.060000	9.128568	14.609791	7.134689
131	14	1	-0.180000	4.699267	33.335878	25.884856
132	14	7	0.470000	6.023867	32.675010	26.114338
133	14	8	-0.470000	6.927072	32.841498	25.309158
134	14	1	-0.180000	6.248123	31.814135	27.320348
135	14	9	0.060000	4.272240	32.989345	24.920506
136	14	9	0.060000	4.833670	34.437289	25.849682
137	14	9	0.060000	3.987544	33.088244	26.700787
138	14	9	0.060000	7.282593	31.408906	27.326768
139	14	9	0.060000	5.531504	30.966394	27.311608
140	14	9	0.060000	6.093064	32.414672	28.240997
141	15	1	-0.180000	29.063975	12.733972	30.735781
142	15	7	0.470000	27.764005	12.691316	31.478904
143	15	8	-0.470000	27.438097	11.669554	32.063370
144	15	1	-0.180000	26.863637	13.888898	31.510349
145	15	9	0.060000	29.066702	11.954788	29.945038
146	15	9	0.060000	29.901456	12.543146	31.439072
147	15	9	0.060000	29.215028	13.726422	30.260553
148	15	9	0.060000	25.949119	13.677214	32.104675
149	15	9	0.060000	26.564135	14.157293	30.475677
150	15	9	0.060000	27.399081	14.745785	31.970054
151	16	1	-0.180000	27.735979	28.015306	33.719050
152	16	7	0.470000	28.457102	27.982933	35.031645
153	16	8	-0.470000	28.668984	26.910097	35.575651
154	16	1	-0.180000	28.918819	29.252754	35.679893
155	16	9	0.060000	26.727934	27.565404	33.836704
156	16	9	0.060000	28.308619	27.435616	32.965093
157	16	9	0.060000	27.621816	29.058962	33.356607
158	16	9	0.060000	29.431710	29.038663	36.641914
159	16	9	0.060000	28.045669	29.909022	35.877898
160	16	9	0.060000	29.626718	29.779204	35.006087
161	17	1	-0.180000	4.253779	13.491419	27.404648
162	17	7	0.470000	5.162013	12.579696	26.637938
163	17	8	-0.470000	6.181349	13.028130	26.136265
164	17	1	-0.180000	4.830255	11.126551	26.482494
165	17	9	0.060000	3.895443	14.305270	26.740078
166	17	9	0.060000	4.806174	13.934819	28.259437
167	17	9	0.060000	3.375064	12.936139	27.795977
168	17	9	0.060000	5.611438	10.606810	25.887514
169	17	9	0.060000	3.854862	11.020408	25.963239
170	17	9	0.060000	4.765803	10.649872	27.482947
171	18	1	-0.180000	8.971526	20.734972	13.662988
172	18	7	0.470000	9.055809	21.707003	12.526315
173	18	8	-0.470000	8.031701	22.198572	12.077567
174	18	1	-0.180000	10.382784	22.079390	11.937826
175	18	9	0.060000	8.358985	19.860030	13.360201
176	18	9	0.060000	8.498297	21.226232	14.538845
177	18	9	0.060000	9.982600	20.379925	13.955027
178	18	9	0.060000	10.254261	22.807747	11.108756
179	18	9	0.060000	10.883118	21.170931	11.542034
180	18	9	0.060000	11.022462	22.537446	12.720949
181	19	1	-0.180000	8.688416	26.090387	14.365491
182	19	7	0.470000	8.766599	24.982253	15.370428
183	19	8	-0.470000	7.928180	24.912471	16.255863
184	19	1	-0.180000	9.862125	23.962267	15.297586
185	19	9	0.060000	8.757660	27.069340	14.884398
186	19	9	0.060000	7.722063	26.032911	13.822105
187	19	9	0.060000	9.517346	26.015971	13.629997
188	19	9	0.060000	9.762951	23.220083	16.118382
189	19	9	0.060000	10.847136	24.466194	15.387555
190	19	9	0.060000	9.811300	23.429526	14.325018
191	20	1	-0.180000	21.894997	27.409337	8.816724
192	20	7	0.470000	20.753548	27.687336	7.887323
193	20	8	-0.470000	19.714889	28.151548	8.331741
194	20	1	-0.180000	20.876272	27.401057	6.421432
195	20	9	0.060000	21.577216	26.677164	9.588312
196	20	9	0.060000	22.208073	28.351085	9.314221
197	20	9	0.060000	22.762579	26.991715	8.263092
198	20	9	0.060000	19.938058	27.667517	5.889330
199	20	9	0.060000	21.080225	26.320645	6.268472
200	20	9	0.060000	21.711226	27.994950	5.994318
201	21	1	-0.180000	26.933270	31.246152	6.652990
202	21	7	0.470000	28.253810	31.171124	5.949770
203	21	8	-0.470000	28.788229	32.198527	5.561630
204	21	1	-0.180000	28.921614	29.849376	5.719825
205	21	9	0.060000	26.179660	31.708811	5.981852
206	21	9	0.060000	27.034018	31.864243	7.569626
207	21	9	0.060000	26.581213	30.233052	6.941603
208	21	9	0.060000	29.887144	29.984585	5.187051
209	21	9	0.060000	28.262114	29.200258	5.106646
210	21	9	0.060000	29.116669	29.355726	6.694786
211	22	1	-0.180000	19.305358	27.335752	34.054809
212	22	7	0.470000	19.290226	28.109423	35.337454
213	22	8	-0.470000	19.914347	29.156362	35.416231
214	22	1	-0.180000	18.517649	27.610020	36.520490
215	22	9	0.060000	20.348589	27.050871	33.803970
216	22	9	0.060000	18.891446	27.962185	33.237088
217	22	9	0.060000	18.693843	26.412765	34.142894
218	22	9	0.060000	18.619832	28.307560	37.379195
219	22	9	0.060000	18.900742	26.612648	36.821775
220	22	9	0.060000	17.443264	27.524172	36.254762
221	23	1	-0.180000	8.617868	32.876021	30.717916
222	23	7	0.470000	9.993171	32.346326	30.986133
223	23	8	-0.470000	10.157952	31.144597	31.129341
224	23	1	-0.180000	11.164193	33.276813	31.079703
225	23	9	0.060000	7.944534	32.606682	31.558444
226	23	9	0.060000	8.224693	32.433044	29.778985
227	23	9	0.060000	8.633875	33.981578	30.612557
228	23	9	0.060000	12.099362	32.712104	31.282041
229	23	9	0.060000	10.998758	34.002470	31.903315
230	23	9	0.060000	11.278981	33.828792	30.123446
231	24	1	-0.180000	6.157757	28.683542	12.602430
232	24	7	0.470000	7.332237	29.167596	11.808539
233	24	8	-0.470000	7.374840	30.333396	11.446728
234	24	1	-0.180000	8.451351	28.235216	11.456251
235	24	9	0.060000	5.227484	28.820078	12.012211
236	24	9	0.060000	6.080445	29.264662	13.545155
237	24	9	0.060000	6.267256	27.607202	12.853662
238	24	9	0.060000	9.232335	28.763418	10.868506
239	24	9	0.060000	8.057372	27.391729	10.851608
240	24	9	0.060000	8.910529	27.836415	12.384905
241	25	1	-0.180000	6.956235	30.472365	5.443302
242	25	7	0.470000	6.142821	29.282523	5.035128
243	25	8	-0.470000	6.694472	28.206282	4.864249
244	25	1	-0.180000	4.662406	29.402616	4.835620
245	25	9	0.060000	7.725968	30.680070	4.670788
246	25	9	0.060000	7.457734	30.266124	6.411998
247	25	9	0.060000	6.312793	31.370426	5.557680
248	25	9	0.060000	4.225943	28.425785	4.536155
249	25	9	0.060000	4.452798	30.147547	4.039739
250	25	9	0.060000	4.184503	29.733505	5.781350
251	26	1	-0.180000	8.065704	32.788967	17.916868
252	26	7	0.470000	9.477327	32.520855	18.340438
253	26	8	-0.470000	9.740485	31.489159	18.938907
254	26	1	-0.180000	10.565156	33.505741	18.036331
255	26	9	0.060000	7.407582	32.816602	18.810467
256	26	9	0.060000	7.721924	31.983008	17.235214
257	26	9	0.060000	7.990301	33.762112	17.386851
258	26	9	0.060000	11.541916	33.143822	18.422765
259	26	9	0.060000	10.329993	34.479988	18.513641
260	26	9	0.060000	10.644407	33.646201	16.938025
261	27	1	-0.180000	12.933300	32.283760	15.413693
262	27	7	0.470000	13.562054	32.101801	16.761111
263	27	8	-0.470000	14.419588	32.886573	17.136052
264	27	1	-0.180000	13.148064	30.967937	17.649265
265	27	9	0.060000	13.715152	32.229500	14.627454
266	27	9	0.060000	12.435633	33.274937	15.365701
267	27	9	0.060000	12.176657	31.493875	15.220853
268	27	9	0.060000	13.716151	30.989140	18.603836
269	27	9	0.060000	13.344108	30.002692	17.137254
270	27	9	0.060000	12.064295	31.048370	17.875671
271	28	1	-0.180000	23.944658	23.048717	31.474414
272	28	7	0.470000	22.699326	23.814794	31.148460
273	28	8	-0.470000	21.631119	23.226430	31.080830
274	28	1	-0.180000	22.754351	25.292579	30.905603
275	28	9	0.060000	24.112593	22.266116	30.705166
276	28	9	0.060000	23.835706	22.566167	32.468236
277	28	9	0.060000	24.827734	23.721926	31.498528
278	28	9	0.060000	21.742426	25.691276	30.678828
279	28	9	0.060000	23.423644	25.504302	30.045659
280	28	9	0.060000	23.146693	25.804421	31.809135
281	29	1	-0.180000	35.020866	31.014485	29.857452
282	29	7	0.470000	34.951731	30.578282	28.426047
283	29	8	-0.470000	34.488397	31.336052	27.587644
284	29	1	-0.180000	35.445157	29.223736	28.016667
285	29	9	0.060000	33.998850	31.239234	30.228100
286	29	9	0.060000	35.647514	31.927229	29.938815
287	29	9	0.060000	35.464501	30.218262	30.492141
288	29	9	0.060000	35.316380	29.072682	26.923517
289	29	9	0.060000	34.873394	28.440023	28.556264
290	29	9	0.060000	36.522437	29.128177	28.266911
291	30	1	-0.180000	21.194412	2.947460	31.322593
292	30	7	0.470000	19.965524	3.790708	31.473396
293	30	8	-0.470000	20.042405	4.870915	32.038245
294	30	1	-0.180000	18.647155	3.320286	30.938176
295	30	9	0.060000	21.603335	2.702457	32.325171
296	30	9	0.060000	21.959588	3.504660	30.742557
297	30	9	0.060000	20.961214	2.000931	30.790318
298	30	9	0.060000	17.851816	4.069616	31.138967
299	30	9	0.060000	18.367754	2.362421	31.424709
300	30	9	0.060000	18.724089	3.164809	29.841730
301	31	1	-0.180000	5.603967	7.180649	3.089307
302	31	7	0.470000	6.132086	7.681251	4.398681
303	31	8	-0.470000	6.608139	8.804042	4.465965
304	31	1	-0.180000	6.080776	6.817568	5.622312
305	31	9	0.060000	6.419252	7.176789	2.335845
306	31	9	0.060000	4.786410	7.844939	2.738981
307	31	9	0.060000	5.206962	6.148445	3.192055
308	31	9	0.060000	6.514054	7.348937	6.496552
309	31	9	0.060000	6.659539	5.886832	5.446105
310	31	9	0.060000	5.026322	6.555136	5.849334
311	32	1	-0.180000	5.796579	11.436832	5.907378
312	32	7	0.470000	7.230402	11.594654	5.503375
313	32	8	-0.470000	7.716285	10.820080	4.693582
314	32	1	-0.180000	8.070042	12.692081	6.083472
315	32	9	0.060000	5.646077	10.435842	6.363204
316	32	9	0.060000	5.145092	11.532536	5.013615
317	32	9	0.060000	5.506501	12.213650	6.646312
318	32	9	0.060000	9.101441	12.656818	5.671949
319	32	9	0.060000	8.120608	12.579224	7.186645
320	32	9	0.060000	7.619508	13.676169	5.836745
321	33	1	-0.180000	11.113927	3.756712	20.364611
322	33	7	0.470000	9.879356	3.567049	19.537668
323	33	8	-0.470000	9.896456	3.865514	18.353422
324	33	1	-0.180000	8.627877	3.015730	20.150615
325	33	9	0.060000	11.406091	4.827692	20.357482
326	33	9	0.060000	11.941958	3.149716	19.942321
327	33	9	0.060000	10.938385	3.440804	21.414850
328	33	9	0.060000	7.818054	2.944478	19.393326
329	33	9	0.060000	8.291415	3.680897	20.973190
330	33	9	0.060000	8.827405	2.002535	20.557934
331	34	1	-0.180000	35.465525	19.982864	8.170323
332	34	7	0.470000	34.642539	18.976089	8.914012
333	34	8	-0.470000	34.679767	18.951770	10.134601
334	34	1	-0.180000	33.776935	18.001968	8.173963
335	34	9	0.060000	36.539780	19.834078	8.407487
336	34	9	0.060000	35.163493	21.007397	8.472839
337	34	9	0.060000	35.323281	19.877084	7.073878
338	34	9	0.060000	33.241735	17.334694	8.882965
339	34	9	0.060000	34.405322	17.380487	7.502268
340	34	9	0.060000	33.028719	18.554076	7.567635
341	35	1	-0.180000	13.840590	36.939702	36.945857
342	35	7	0.470000	12.496219	36.280281	36.903398
343	35	8	-0.470000	12.362371	35.156366	37.362433
344	35	1	-0.180000	11.318487	36.987004	36.303943
345	35	9	0.060000	14.574444	36.325932	36.382694
346	35	9	0.060000	14.176123	37.033868	37.999877
347	35	9	0.060000	13.798350	37.952570	36.492061
348	35	9	0.060000	10.409243	36.350859	36.358468
349	35	9	0.060000	11.527400	37.222567	35.239448
350	35	9	0.060000	11.128988	37.930666	36.857003
351	36	1	-0.180000	11.257087	25.895174	5.901226
352	36	7	0.470000	11.274721	27.392390	5.856420
353	36	8	-0.470000	10.917856	27.968354	4.840189
354	36	1	-0.180000	11.725423	28.185894	7.045147
355	36	9	0.060000	11.923245	25.491020	5.110466
356	36	9	0.060000	10.223067	25.529564	5.729355
357	36	9	0.060000	11.607900	25.525270	6.887997
358	36	9	0.060000	11.672910	29.275220	6.833041
359	36	9	0.060000	12.773773	27.919881	7.295113
360	36	9	0.060000	11.073204	27.958433	7.914144
361	37	1	-0.180000	16.586086	9.564036	24.942045
362	37	7	0.470000	17.912090	8.907498	25.175808
363	37	8	-0.470000	18.270009	7.996850	24.444762
364	37	1	-0.180000	18.799558	9.358254	26.296109
365	37	9	0.060000	15.776367	8.809659	25.029684
366	37	9	0.060000	16.563914	10.006652	23.924201
367	37	9	0.060000	16.407116	10.368979	25.686122
368	37	9	0.060000	19.736971	8.762329	26.318669
369	37	9	0.060000	18.271276	9.231507	27.264167
370	37	9	0.060000	19.059004	10.428776	26.158430
371	38	1	-0.180000	13.567769	24.017374	26.400846
372	38	7	0.470000	12.876362	22.863953	25.740883
373	38	8	-0.470000	13.439848	21.782320	25.674812
374	38	1	-0.180000	11.503210	23.026899	25.163167
375	38	9	0.060000	14.517104	24.236492	25.868718
376	38	9	0.060000	13.792307	23.761850	27.457585
377	38	9	0.060000	12.928465	24.925388	26.380464
378	38	9	0.060000	11.149209	22.073081	24.716746
379	38	9	0.060000	11.521228	23.806906	24.373516
380	38	9	0.060000	10.796265	23.332155	25.962749
381	39	1	-0.180000	31.931066	16.781780	30.999078
382	39	7	0.470000	33.017140	17.804879	30.866093
383	39	8	-0.470000	32.782411	18.861797	30.300726
384	39	1	-0.180000	34.384719	17.542014	31.419704
385	39	9	0.060000	31.578826	16.479297	29.990693
386	39	9	0.060000	31.081096	17.212749	31.568486
387	39	9	0.060000	32.300057	15.881137	31.534152
388	39	9	0.060000	35.057660	18.405582	31.230551
389	39	9	0.060000	34.815283	16.640002	30.936721
390	39	9	0.060000	34.317438	17.373623	32.514876
391	40	1	-0.180000	30.148289	18.997025	3.535326
392	40	7	0.470000	29.824726	18.854427	4.990987
393	40	8	-0.470000	28.675114	18.622357	5.332083
394	40	1	-0.180000	30.897451	18.993936	6.028124
395	40	9	0.060000	29.561377	19.834636	3.103640
396	40	9	0.060000	29.890086	18.057878	3.002651
397	40	9	0.060000	31.229466	19.205339	3.389468
398	40	9	0.060000	30.477833	18.858344	7.047885
399	40	9	0.060000	31.352929	20.003958	5.959707
400	40	9	0.060000	31.681713	18.226791	5.858695
401	41	1	-0.180000	12.492395	18.403347	26.491626
402	41	7	0.470000	11.488514	17.535897	25.796121
403	41	8	-0.470000	11.683658	16.332667	25.718847
404	41	1	-0.180000	10.250916	18.131502	25.196572
405	41	9	0.060000	13.474773	18.318600	25.981566
406	41	9	0.060000	12.599716	18.076145	27.547007
407	41	9	0.060000	12.172643	19.466915	26.477614
408	41	9	0.060000	9.624981	17.344130	24.724736
409	41	9	0.060000	10.532709	18.876259	24.423129
410	41	9	0.060000	9.657452	18.633749	25.988931
411	42	1	-0.180000	31.578152	9.596714	26.769208
412	42	7	0.470000	32.671828	8.980791	27.586817
413	42	8	-0.470000	33.651247	9.648132	27.882126
414	42	1	-0.180000	32.573381	7.556840	28.043462
415	42	9	0.060000	31.986109	9.929592	25.791878
416	42	9	0.060000	31.159143	10.472718	27.307219
417	42	9	0.060000	30.762283	8.865689	26.585976
418	42	9	0.060000	33.469495	7.271202	28.634875
419	42	9	0.060000	32.497962	6.886963	27.161498
420	42	9	0.060000	31.670805	7.430214	28.677187
421	43	1	-0.180000	9.635743	4.589524	4.941568
422	43	7	0.470000	9.710254	3.625418	6.085649
423	43	8	-0.470000	8.836127	3.634955	6.938659
424	43	1	-0.180000	10.845455	2.652741	6.190872
425	43	9	0.060000	9.644823	5.629550	5.329733
426	43	9	0.060000	8.697606	4.420519	4.372582
427	43	9	0.060000	10.499074	4.456168	4.255646
428	43	9	0.060000	10.737447	2.019644	7.097460
429	43	9	0.060000	11.805824	3.206037	6.252830
430	43	9	0.060000	10.858388	1.996728	5.295459
431	44	1	-0.180000	6.883113	13.979345	3.003344
432	44	7	0.470000	8.209406	14.452029	2.491983
433	44	8	-0.470000	8.302668	15.566461	2.000905
434	44	1	-0.180000	9.418375	13.570662	2.578236
435	44	9	0.060000	6.144514	13.974842	2.174573
436	44	9	0.060000	6.528436	14.660981	3.804583
437	44	9	0.060000	6.962666	12.951714	3.417179
438	44	9	0.060000	10.308423	14.082146	2.153294
439	44	9	0.060000	9.238229	12.634214	2.009995
440	44	9	0.060000	9.622239	13.320512	3.640380
441	45	1	-0.180000	37.192335	10.955836	16.882129
442	45	7	0.470000	35.764367	11.288839	16.575550
443	45	8	-0.470000	35.342926	11.142312	15.438567
444	45	1	-0.180000	34.852349	11.798644	17.649877
445	45	9	0.060000	37.863224	11.584077	16.259530
446	45	9	0.060000	37.381785	9.885422	16.656897
447	45	9	0.060000	37.420227	11.141792	17.953156
448	45	9	0.060000	33.836385	11.991579	17.243711
449	45	9	0.060000	35.257774	12.745065	18.064850
450	45	9	0.060000	34.776224	11.046018	18.462308
451	46	1	-0.180000	29.570746	34.756302	24.627236
452	46	7	0.470000	29.687407	36.148805	24.087514
453	46	8	-0.470000	29.457853	37.099214	24.819525
454	46	1	-0.180000	30.082311	36.383462	22.661035
455	46	9	0.060000	28.534494	34.581056	24.984840
456	46	9	0.060000	30.276248	34.624815	25.474223
457	46	9	0.060000	29.809955	34.007213	23.842852
458	46	9	0.060000	30.117878	37.471123	22.437192
459	46	9	0.060000	29.343674	35.902897	21.985939
460	46	9	0.060000	31.085828	35.946666	22.475434
461	47	1	-0.180000	22.075057	3.577786	20.544510
462	47	7	0.470000	21.932476	3.132591	21.967692
463	47	8	-0.470000	21.545428	1.999320	22.207908
464	47	1	-0.180000	22.260096	4.064227	23.094888
465	47	9	0.060000	21.091942	3.511246	20.033173
466	47	9	0.060000	22.803711	2.924039	20.020978
467	47	9	0.060000	22.434735	4.627354	20.493001
468	47	9	0.060000	22.096667	3.567457	24.075137
469	47	9	0.060000	21.611102	4.962923	23.036264
470	47	9	0.060000	23.323265	4.375580	23.024065
471	48	1	-0.180000	24.717232	20.384437	12.855828
472	48	7	0.470000	23.768372	19.427689	12.201403
473	48	8	-0.470000	23.646257	18.298742	12.651268
474	48	1	-0.180000	22.970679	19.844120	11.003018
475	48	9	0.060000	25.745509	19.966984	12.827763
476	48	9	0.060000	24.416455	20.543037	13.912609
477	48	9	0.060000	24.714420	21.363965	12.332253
478	48	9	0.060000	22.323966	19.011298	10.652951
479	48	9	0.060000	23.657488	20.134208	10.180567
480	48	9	0.060000	22.328128	20.710393	11.265663
481	49	1	-0.180000	18.928385	9.682213	17.380139
482	49	7	0.470000	20.185567	10.090444	16.675288
483	49	8	-0.470000	20.290659	11.227658	16.242261
484	49	1	-0.180000	21.311282	9.117172	16.498197
485	49	9	0.060000	18.063364	9.793513	16.693291
486	49	9	0.060000	18.773566	10.328126	18.269653
487	49	9	0.060000	18.987493	8.624038	17.712382
488	49	9	0.060000	22.157950	9.590312	15.956282
489	49	9	0.060000	20.958118	8.240834	15.915454
490	49	9	0.060000	21.668483	8.775570	17.492178
491	50	1	-0.180000	29.247332	24.120546	32.478674
492	50	7	0.470000	27.862145	24.681414	32.581918
493	50	8	-0.470000	27.343534	25.188926	31.599428
494	50	1	-0.180000	27.110711	24.624568	33.877282
495	50	9	0.060000	29.953416	24.924217	32.182081
496	50	9	0.060000	29.267481	23.316378	31.713615
497	50	9	0.060000	29.575633	23.697029	33.451539
498	50	9	0.060000	26.105455	25.085061	33.768722
499	50	9	0.060000	27.674154	25.175005	34.659481
500	50	9	0.060000	26.988060	23.566796	34.190907
501	51	1	-0.180000	11.755795	15.789715	13.215983
502	51	7	0.470000	11.826243	17.103183	12.499176
503	51	8	-0.470000	11.265905	17.231532	11.421511
504	51	1	-0.180000	12.576551	18.256782	13.092557
505	51	9	0.060000	12.200083	14.994688	12.581201
506	51	9	0.060000	10.695684	15.537547	13.428079
507	51	9	0.060000	12.312133	15.833350	14.176295
508	51	9	0.060000	12.522252	19.144690	12.426937
509	51	9	0.060000	13.641964	17.977146	13.230330
510	51	9	0.060000	12.137219	18.520130	14.077402
511	52	1	-0.180000	13.978016	6.013234	17.687851
512	52	7	0.470000	12.544581	5.673874	17.960015
513	52	8	-0.470000	12.215422	4.503811	18.080102
514	52	1	-0.180000	11.515112	6.755669	18.085582
515	52	9	0.060000	14.298324	5.540729	16.735721
516	52	9	0.060000	14.613983	5.634567	18.515235
517	52	9	0.060000	14.115074	7.112352	17.605580
518	52	9	0.060000	10.512130	6.321974	18.286365
519	52	9	0.060000	11.470635	7.339156	17.142264
520	52	9	0.060000	11.786366	7.433015	18.922187
521	53	1	-0.180000	33.961742	11.732735	34.620633
522	53	7	0.470000	34.988947	10.945983	33.865753
523	53	8	-0.470000	35.795690	11.530963	33.159511
524	53	1	-0.180000	35.033813	9.451696	33.970388
525	53	9	0.060000	33.333956	12.306688	33.907280
526	53	9	0.060000	34.467506	12.439070	35.311793
527	53	9	0.060000	33.305969	11.060171	35.213284
528	53	9	0.060000	35.855132	9.038778	33.346439
529	53	9	0.060000	34.070162	9.024590	33.622191
530	53	9	0.060000	35.203973	9.157003	35.027026
531	54	1	-0.180000	19.243753	11.731791	29.804399
532	54	7	0.470000	19.101823	10.262764	29.547904
533	54	8	-0.470000	20.089412	9.603623	29.261522
534	54	1	-0.180000	17.761706	9.598312	29.639789
535	54	9	0.060000	19.651363	12.230114	28.900000
536	54	9	0.060000	19.937398	11.895973	30.655462
537	54	9	0.060000	18.260931	12.186559	30.051102
538	54	9	0.060000	17.845710	8.512601	29.419443
539	54	9	0.060000	17.066077	10.059474	28.907864
540	54	9	0.060000	17.352178	9.725256	30.663731
541	55	1	-0.180000	14.631801	34.535661	32.952360
542	55	7	0.470000	15.952078	34.281139	32.292010
543	55	8	-0.470000	16.831560	35.125990	32.359464
544	55	1	-0.180000	16.200817	33.002021	31.551849
545	55	9	0.060000	14.168395	35.446879	32.519526
546	55	9	0.060000	14.783041	34.685486	34.041895
547	55	9	0.060000	13.942691	33.677763	32.801517
548	55	9	0.060000	17.228176	32.986241	31.129166
549	55	9	0.060000	15.470487	32.903728	30.721644
550	55	9	0.060000	16.085275	32.142160	32.244362
551	56	1	-0.180000	30.851489	35.704553	10.932780
552	56	7	0.470000	30.125355	36.681483	11.805884
553	56	8	-0.470000	29.071273	37.164276	11.421650
554	56	1	-0.180000	30.680816	37.069406	13.142608
555	56	9	0.060000	31.108865	36.187833	9.967065
556	56	9	0.060000	30.203031	34.824553	10.739105
557	56	9	0.060000	31.787569	35.358710	11.420388
558	56	9	0.060000	30.013293	37.799412	13.648456