
variable        infile index acetone_octanol_75p.data   # The name of the (edited) data file

#>>>>>> Simulation settings <<<<<<<

units		 real		#angstroms = length -
atom_style	 full		#How the atoms are defined in the input data file
boundary        p p p           #periodic box in x, y and z
pair_style	 lj/cut/coul/long 12.0    #'lj/cut/coul/long
pair_modify     tail yes            #Tail corrections
pair_modify     mix arithmetic      #Lorentz-Berthelot pair interactions between dissimilar atom

special_bonds   lj/coul 0.0 0.0 0.5
kspace_style    ewald 0.0001
bond_style      harmonic
angle_style     harmonic
dihedral_style  opls


# inputs settings
variable   simulationTemp  index 310     #Simulation temperature
variable   simulationPress equal 0.987	 #Simulation pressure

# Output files frequencies
variable        dumpfreq   index 1000          #Output frequency of dump information to dump
variable        thermofreq index 1000          #Output frequency of property information to log
variable        printfreq  index 1000          #Output frequency of information to be printed
variable        restartfreq index 1000000      #Output frequency of restart files


# Simulation run times (equilibration and production)
variable        NVT_equib  index 100000       # Equilibration run length (in timesteps)
variable        NVT_prod   index 30000       # Simulation run length  (in timesteps)


# Output
variable    step        equal step
variable    density     equal density
variable    temp        equal temp
variable    press       equal press
variable    ke          equal ke
variable    pe          equal pe
variable    etotal      equal etotal
variable    enthalpy    equal enthalpy


# >>>>>>>>>>> Reading data, Neighbor list settings, energy minimization, assigning initial velocities & specifying thermodynamic property output style to log files <<<<<<<<<

read_data	${infile}
read_data	acetone_octanol_75p.data
  orthogonal box = (0 0 0) to (40 40 40)
  3 by 4 by 4 MPI processor grid
  reading atoms ...
  4550 atoms
  scanning bonds ...
  1 = max bonds/atom
  scanning angles ...
  6 = max angles/atom
  scanning dihedrals ...
  12 = max dihedrals/atom
  reading bonds ...
  4350 bonds
  reading angles ...
  8100 angles
  reading dihedrals ...
  10500 dihedrals
  4 = max # of 1-2 neighbors
  6 = max # of 1-3 neighbors
  12 = max # of 1-4 neighbors
  16 = max # of special neighbors
  special bonds CPU = 0.0184622 secs
  read_data CPU = 0.0705823 secs
neighbor        1.0 bin
neigh_modify    delay 0 every 1 check yes page 1000000 one 20000
timestep        1.0

minimize        1e-4 1e-6 10000 100000        #Energy minimize before creating velocities
Ewald initialization ...
  using 12-bit tables for long-range coulomb (src/kspace.cpp:332)
  G vector (1/distance) = 0.165518
  estimated absolute RMS force accuracy = 0.033682
  estimated relative force accuracy = 0.000101432
  KSpace vectors: actual max1d max3d = 257 5 665
                  kxmax kymax kzmax  = 5 5 5
Neighbor list info ...
  update every 1 steps, delay 0 steps, check yes
  max neighbors/atom: 20000, page size: 1000000
  master list distance cutoff = 13
  ghost atom cutoff = 13
  binsize = 6.5, bins = 7 7 7
  1 neighbor lists, perpetual/occasional/extra = 1 0 0
  (1) pair lj/cut/coul/long, perpetual
      attributes: half, newton on
      pair build: half/bin/newton
      stencil: half/bin/3d/newton
      bin: standard
Per MPI rank memory allocation (min/avg/max) = 25.79 | 25.86 | 26.3 Mbytes
Step Temp E_pair E_mol TotEng Press 
       0            0    136.26699    1408.3709    1544.6379   -6769.2719 
     395            0   -2469.8684    669.43096   -1800.4375   -588.95283 
Loop time of 3.56547 on 48 procs for 395 steps with 4550 atoms

51.0% CPU use with 48 MPI tasks x 1 OpenMP threads

Minimization stats:
  Stopping criterion = energy tolerance
  Energy initial, next-to-last, final = 
         1544.63793646      -1800.3318114     -1800.43746793
  Force two-norm initial, final = 2080.42 25.2554
  Force max component initial, final = 681.178 3.04398
  Final line search alpha, max atom move = 0.00595075 0.018114
  Iterations, force evaluations = 395 786

MPI task timing breakdown:
Section |  min time  |  avg time  |  max time  |%varavg| %total
---------------------------------------------------------------
Pair    | 0.12504    | 0.88978    | 1.9281     |  46.0 | 24.96
Bond    | 0.011669   | 0.055033   | 0.086067   |   7.8 |  1.54
Kspace  | 0.50637    | 1.5198     | 2.2196     |  34.0 | 42.63
Neigh   | 0.068526   | 0.07354    | 0.078076   |   1.2 |  2.06
Comm    | 0.49599    | 0.59063    | 0.71488    |   6.5 | 16.57
Output  | 0          | 0          | 0          |   0.0 |  0.00
Modify  | 0          | 0          | 0          |   0.0 |  0.00
Other   |            | 0.4367     |            |       | 12.25

Nlocal:    94.7917 ave 150 max 15 min
Histogram: 2 2 2 2 8 7 8 5 8 4
Nghost:    3482.71 ave 3641 max 3373 min
Histogram: 1 7 10 10 3 6 6 1 3 1
Neighs:    34645.8 ave 72778 max 4371 min
Histogram: 5 5 6 5 7 7 5 3 3 2

Total # of neighbors = 1662997
Ave neighs/atom = 365.494
Ave special neighs/atom = 10.0879
Neighbor list builds = 29
Dangerous builds = 0
#velocity	all create ${simulationTemp} 886874 mom yes rot yes dist gaussian

velocity        all create  ${simulationTemp} 317879265 units box
velocity        all create  310 317879265 units box
velocity        all zero linear units box

# The 'velocity' command line above assigns initial velocities to the atoms in our data file, see the LAMMPS 'velocity' command
# The number '886874' is the seed number which helps LAMMPS to consistently assign the same randomized velocities for the same simulation with the same seed number
# Changing that seed number for your simulation of a given system is one easy way to run an 'independent' simulation of the same system as taught in class
# You will need to do this for your homework

thermo_style    custom step vol temp press ke pe etotal enthalpy evdwl ecoul epair ebond eangle edihed eimp emol elong etail lx ly lz xy xz yz density
thermo          ${thermofreq}
thermo          1000

fix npt_density all npt temp ${simulationTemp} ${simulationTemp} 100 iso ${simulationPress} ${simulationPress} 1000
fix npt_density all npt temp 310 ${simulationTemp} 100 iso ${simulationPress} ${simulationPress} 1000
fix npt_density all npt temp 310 310 100 iso ${simulationPress} ${simulationPress} 1000
fix npt_density all npt temp 310 310 100 iso 0.987 ${simulationPress} 1000
fix npt_density all npt temp 310 310 100 iso 0.987 0.987 1000

run 50000
Ewald initialization ...
  using 12-bit tables for long-range coulomb (src/kspace.cpp:332)
  G vector (1/distance) = 0.165518
  estimated absolute RMS force accuracy = 0.033682
  estimated relative force accuracy = 0.000101432
  KSpace vectors: actual max1d max3d = 257 5 665
                  kxmax kymax kzmax  = 5 5 5
Per MPI rank memory allocation (min/avg/max) = 24.66 | 24.75 | 25.2 Mbytes
Step Volume Temp Press KinEng PotEng TotEng Enthalpy E_vdwl E_coul E_pair E_bond E_angle E_dihed E_impro E_mol E_long E_tail Lx Ly Lz Xy Xz Yz Density 
     395        64000          310    2413.4213    4203.5085   -1800.4375    2403.0711    4655.6966    -1782.276    4032.9678   -2469.8684    28.477346    183.36676    457.58685            0    669.43096   -4720.5603   -49.345281           40           40           40            0            0            0   0.58218183 
    1000    66011.008     286.9931    1035.4974    3891.5417    1952.9532    5844.4949    6841.3712    -1319.495    4142.9691   -1893.0947    1242.0423    1876.4494    727.55618            0    3846.0479   -4716.5688    -47.84199    40.414647    40.414647    40.414647            0            0            0   0.56444582 
    2000    61066.974      316.108    1601.7215    4286.3312    2451.9972    6738.3285    8164.8203   -1192.9312    4103.5547   -1808.3511    1418.0592    2057.3353    784.95379            0    4260.3483   -4718.9746   -51.715318    39.379373    39.379373    39.379373            0            0            0   0.61014383 
    3000    56331.948    308.17283    20.319621    4178.7326    2342.8974      6521.63    6538.3235   -1274.3068    4029.7403   -1964.4698    1466.4766    2055.2324     785.6581            0    4307.3672   -4719.9033    -56.06229    38.334069    38.334069    38.334069            0            0            0   0.66142995 
    4000    53493.236    310.31553   -587.12818     4207.787      2148.05     6355.837    5897.7925    -1391.434    4015.9505   -2099.0246    1386.7681     2082.923    777.38354            0    4247.0746    -4723.541   -59.037333    37.679022    37.679022    37.679022            0            0            0   0.69652988 
    5000    51386.322    312.32437    794.75976    4235.0263    2118.0005    6353.0268    6948.6331    -1383.551    3956.7846   -2149.9333    1416.7688    2066.6082    784.55673            0    4267.9338   -4723.1668   -61.457949    37.177699    37.177699    37.177699            0            0            0   0.72508861 
    6000    50194.873     311.8021   -808.80244    4227.9445    2041.3994    6269.3439    5677.2676   -1458.9184    3949.0604   -2233.8259    1472.4542     2044.135    758.63611            0    4275.2253   -4723.9678   -62.916744    36.888114    36.888114    36.888114            0            0            0   0.74229966 
    7000    49954.557    309.19753   -453.68458    4192.6273    1921.6496    6114.2769    5783.7514   -1450.1507    3930.3802   -2243.1918    1380.7332    2022.0565    762.05174            0    4164.8414   -4723.4212   -63.219417    36.829151    36.829151    36.829151            0            0            0   0.74587064 
    8000    49325.725    312.26585    513.68503    4234.2328     1878.563    6112.7958    6482.3229   -1466.0762    3901.8761   -2286.8364    1365.8466    2038.0008    761.55204            0    4165.3994   -4722.6362   -64.025374    36.673962    36.673962    36.673962            0            0            0   0.75537941 
    9000    48777.695    312.25252   -407.76036    4234.0521    1933.1467    6167.1987    5877.1292   -1471.2062     3934.813   -2255.4092    1413.2124    2064.0501    711.29345            0    4188.5559    -4719.016   -64.744716    36.537634    36.537634    36.537634            0            0            0    0.7638663 
   10000    48760.073    311.42444   -1188.1701    4222.8235    1844.8464    6067.6699    5222.7435   -1526.6463    3903.7642    -2346.276    1401.9891    2073.1749    715.95836            0    4191.1224   -4723.3939   -64.768115    36.533234    36.533234    36.533234            0            0            0   0.76414236 
   11000    48462.342    308.98877   -946.99186    4189.7965    1849.8591    6039.6556    5370.3468   -1529.8073    3901.9594    -2351.802    1381.0755    2108.1448    712.44085            0    4201.6611   -4723.9541   -65.166021    36.458724    36.458724    36.458724            0            0            0   0.76883691 
   12000    48305.178    315.71834    1800.2443    4281.0476    1907.4733    6188.5209    7456.7596    -1444.437    3837.3353   -2330.9062    1388.4043    2130.3049    719.67022            0    4238.3794   -4723.8045   -65.378043    36.419269    36.419269    36.419269            0            0            0   0.77133837 
   13000    48418.531    312.63664   -590.44877    4239.2606    1901.7902    6141.0508    5724.1145   -1519.4555     3887.445   -2354.7385    1363.2586    2180.7264    712.54381            0    4256.5288    -4722.728   -65.224985    36.447734    36.447734    36.447734            0            0            0   0.76953258 
   14000    49302.052    314.67599    -1619.433    4266.9135    1872.7329    6139.6465     4975.242   -1476.7276    3888.0714   -2313.1378    1420.8057    2097.8293    667.23586            0    4185.8708   -4724.4816   -64.056117    36.668094    36.668094    36.668094            0            0            0   0.75574212 
   15000    47596.906    303.38749    -164.4765    4113.8448    1747.7279    5861.5727     5747.401   -1514.3038    3877.4528   -2359.5416    1361.0864    2067.7743    678.40878            0    4107.2695   -4722.6906    -66.35091    36.240394    36.240394    36.240394            0            0            0   0.78281638 
   16000    47835.565    310.18938   -228.15807    4206.0764    1853.1468    6059.2232    5900.0527   -1528.8647    3896.6363   -2357.0275    1364.6746    2129.2422     716.2575            0    4210.1743   -4724.7991   -66.019874    36.300865    36.300865    36.300865            0            0            0   0.77891078 
   17000    47437.003    312.23616    211.30767    4233.8302    1742.2812    5976.1114    6122.2983   -1535.2561    3849.2914   -2411.0231    1360.6984     2102.754    689.85186            0    4153.3043   -4725.0583   -66.574568    36.199765    36.199765    36.199765            0            0            0   0.78545512 
   18000    46656.621    308.54257    963.30785    4183.7461    1663.7185    5847.4646    6502.9368   -1584.0131    3796.9404   -2513.0348    1359.1412    2124.4575     693.1546            0    4176.7533    -4725.962   -67.688099     36.00016     36.00016     36.00016            0            0            0   0.79859271 
   19000    47822.994    306.99598    98.174966    4162.7749     1712.962    5875.7369     5944.209   -1560.2464    3814.0536   -2470.5625    1406.6094    2098.6318    678.28333            0    4183.5245   -4724.3697   -66.037228    36.297685    36.297685    36.297685            0            0            0   0.77911552 
   20000    47212.299     312.5002   -881.45209    4237.4105    1729.1179    5966.5284    5359.6108   -1540.2823    3785.1039   -2479.8121    1393.7188    2118.3752    696.83594            0      4208.93   -4724.6336   -66.891426    36.142516    36.142516    36.142516            0            0            0   0.78919345 
   21000    46965.264    314.25552    571.35921    4261.2121    1651.7402    5912.9523    6304.2992   -1565.2661    3802.9409   -2486.7363    1346.6169    2117.3185    674.54108            0    4138.4765    -4724.411   -67.243271    36.079368    36.079368    36.079368            0            0            0   0.79334456 
   22000    47864.176     308.2875    404.53342    4180.2875     1623.697    5803.9845     6086.369   -1576.2269    3826.0733    -2474.974    1408.7901    2044.0755    645.80538            0     4098.671   -4724.8205   -65.980411      36.3081      36.3081      36.3081            0            0            0   0.77844519 
   23000    47063.527    312.50207    256.24415    4237.4359    1654.8226    5892.2585    6068.1376   -1573.3839    3799.6821   -2499.0279    1363.5607    2133.1361    657.15365            0    4153.8505   -4725.3261   -67.102876    36.104513    36.104513    36.104513            0            0            0   0.79168817 
   24000    47196.573    309.78287    533.21237    4200.5644    1689.3075    5889.8718    6256.8891   -1577.8987    3750.4595    -2552.198     1411.564    2160.2782    669.66331            0    4241.5054   -4724.7587   -66.913714    36.138503    36.138503    36.138503            0            0            0   0.78945641 
   25000    47278.346    311.13701    912.86797     4218.926    1624.1934    5843.1194    6472.5475   -1539.6673    3746.0336   -2518.7799    1399.0121    2113.1941    630.76704            0    4142.9732   -4725.1462    -66.79798    36.159362    36.159362    36.159362            0            0            0   0.78809097 
   26000    46699.683    310.23777    703.67759    4206.7326    1681.7345     5888.467    6367.7186   -1580.5903    3767.2896   -2537.5457    1423.3874    2148.6303    647.26249            0    4219.2801    -4724.245   -67.625683    36.011232    36.011232    36.011232            0            0            0   0.79785631 
   27000    47257.494    307.19978    129.41139    4165.5384     1632.063    5797.6014     5886.792   -1593.9951    3778.6395   -2538.0719    1405.5734    2109.8281    654.73347            0    4170.1349   -4722.7163   -66.827453    36.154045    36.154045    36.154045            0            0            0   0.78843869 
   28000    46268.436    308.84148   -489.08756    4187.7994    1546.2149    5734.0143    5403.9889   -1597.5664    3725.5666   -2595.3178    1423.5509    2074.2492     643.7326            0    4141.5327   -4723.3181   -68.255993     35.90004     35.90004     35.90004            0            0            0   0.80529278 
   29000    46732.827    316.66369   -166.60825    4293.8661    1608.2235    5902.0896    5788.5377   -1613.7801    3756.5077   -2579.2377    1431.5917    2105.1654    650.70412            0    4187.4612   -4721.9653   -67.577722    36.019749    36.019749    36.019749            0            0            0   0.79729047 
   30000    47608.431    308.74641   -127.31274    4186.5103    1652.1215    5838.6318     5750.236   -1551.5545    3733.5781   -2541.8375    1406.8075    2146.0822    641.06935            0    4193.9591   -4723.8611   -66.334847    36.243319    36.243319    36.243319            0            0            0   0.78262686 
   31000    46386.713    306.02191    -339.6394    4149.5668    1575.4322     5724.999    5495.2321   -1588.9866    3727.8986   -2586.5015    1413.8319    2101.9586    646.14325            0    4161.9337   -4725.4135   -68.081953    35.930605    35.930605    35.930605            0            0            0   0.80323944 
   32000    46421.156    303.64799    -225.0317    4117.3771    1550.6977    5668.0748    5515.7272   -1599.7195    3728.9788   -2594.0611    1411.4126     2083.309    650.03714            0    4144.7588   -4723.3204   -68.031438    35.939496    35.939496    35.939496            0            0            0   0.80264345 
   33000    46220.341    314.74911    768.18125     4267.905     1532.132     5800.037    6317.8497   -1605.0492    3729.9659   -2597.1063    1386.7004    2100.2325    642.30543            0    4129.2383    -4722.023   -68.327017    35.887597    35.887597    35.887597            0            0            0   0.80613073 
   34000    46025.117    309.72167   -265.82524    4199.7345    1583.0838    5782.8183    5604.3887   -1600.4459    3726.6733   -2598.7311    1429.3951    2120.4305    631.98932            0    4181.8149   -4724.9585   -68.616838    35.836999    35.836999    35.836999            0            0            0   0.80955009 
   35000    46113.303    305.87775   -1446.8371    4147.6121    1567.6705    5715.2826    4742.2626   -1645.6344    3758.7499   -2611.1627    1410.0342    2111.6789    657.12012            0    4178.8332   -4724.2782   -68.485616    35.859873    35.859873    35.859873            0            0            0   0.80800191 
   36000    47002.939    311.71225    210.85518    4226.7262    1606.4164    5833.1426    5977.6816   -1598.2995    3787.1809    -2535.387    1432.4314    2080.8371    628.53489            0    4141.8034   -4724.2684   -67.189373    36.089013    36.089013    36.089013            0            0            0   0.79270868 
   37000    46775.353    312.53691    456.49784    4237.9082    1703.2165    5941.1247    6252.5341   -1613.0463    3810.6204    -2527.505    1442.7829    2158.4149    629.52364            0    4230.7215   -4725.0792   -67.516283    36.030672    36.030672    36.030672            0            0            0    0.7965656 
   38000    46836.582     312.4165    -1340.942    4236.2756    1583.6542    5819.9298    4903.9813   -1609.3674    3766.3168   -2566.9356    1418.5423    2108.5655    623.48189            0    4150.5898    -4723.885    -67.42802    36.046386    36.046386    36.046386            0            0            0   0.79552426 
   39000    46227.079    309.46993    732.55356    4196.3209    1468.5278    5664.8487    6158.7177   -1616.3057    3752.9967   -2587.6964    1390.5169    2051.4946    614.21277            0    4056.2243   -4724.3875   -68.317057    35.889341    35.889341    35.889341            0            0            0   0.80601323 
   40000    47299.095    312.57362   -762.27163     4238.406    1498.4398    5736.8458    5211.0241   -1598.6257    3750.5328   -2572.5276    1373.9696    2080.5328    616.46496            0    4070.9674   -4724.4347   -66.768676    36.164651    36.164651    36.164651            0            0            0   0.78774524 
   41000    46584.289    316.58567   -255.80606    4292.8083    1633.8828    5926.6911    5752.9005   -1631.7977    3791.7619   -2560.4643    1414.4032    2133.6311    646.31278            0    4194.3471   -4720.4285     -67.7932    35.981546    35.981546    35.981546            0            0            0    0.7998327 
   42000    46738.885    313.78693     -1163.34    4254.8582    1481.9535    5736.8116    4943.8341   -1621.7197    3742.9621   -2601.2702    1429.0114    2040.5059    613.70632            0    4083.2236   -4722.5126   -67.568964    36.021305    36.021305    36.021305            0            0            0   0.79718713 
   43000    46578.174    302.04566    292.46962    4095.6501    1607.8326    5703.4827    5902.1558   -1596.9821     3786.212   -2535.1471    1459.7467    2083.8333    599.39965            0    4142.9797    -4724.377   -67.802099    35.979972    35.979972    35.979972            0            0            0   0.79993769 
   44000    46469.463    304.93641   -544.52474    4134.8477    1534.7847    5669.6324    5300.6028   -1617.5212    3748.9109   -2590.5723    1416.4486    2047.4861    661.42225            0    4125.3569    -4721.962   -67.960717    35.951958    35.951958    35.951958            0            0            0   0.80180908 
   45000    45981.604    309.95191     806.0453    4202.8564    1599.1517    5802.0082    6342.5377   -1666.8707    3782.9206   -2607.8076    1452.5132     2111.747    642.69921            0    4206.9593   -4723.8574   -68.681772    35.825702    35.825702    35.825702            0            0            0   0.81031618 
   46000     46931.65    303.19424   -1446.5241    4111.2244    1552.2356      5663.46    4673.3866   -1569.7886    3751.2582   -2543.6227    1456.1944     2026.477    613.18689            0    4095.8583   -4725.0922   -67.291434    36.070758    36.070758    36.070758            0            0            0    0.7939128 
   47000    46600.258     309.8439    -158.1379    4201.3919     1591.433    5792.8249    5685.3517   -1598.2657    3753.2282   -2568.5476    1427.0899    2094.9114    637.97935            0    4159.9806   -4723.5101   -67.769968    35.985657    35.985657    35.985657            0            0            0   0.79955861 
   48000    46705.542    315.13026    713.52558    4273.0734     1552.443    5825.5163     6311.536   -1609.8049    3756.3281   -2578.3907    1403.8085    2129.1941    597.83114            0    4130.8337   -4724.9138   -67.617201    36.012738    36.012738    36.012738            0            0            0   0.79775624 
   49000    46353.266    307.36414   -432.50757     4167.767    1584.2976    5752.0646    5459.6831   -1596.8138    3713.7508   -2609.3784     1455.214    2116.5688    621.89321            0    4193.6759   -4726.3155   -68.131078    35.921967    35.921967    35.921967            0            0            0   0.80381902 
   50000    46694.879    308.12962   -3.0050182    4178.1467    1446.7594    5624.9062    5622.8598   -1588.9798    3738.2925   -2576.4258    1381.1817    2060.3396    581.66388            0    4023.1852   -4725.7384   -67.632642    36.009997    36.009997    36.009997            0            0            0   0.79793841 
   50395    46420.827    310.96812    396.78622     4216.636     1603.548     5820.184    6088.8084   -1614.0373    3727.1292   -2611.7769    1446.1204     2131.037    638.16751            0    4215.3249   -4724.8688    -68.03192    35.939411    35.939411    35.939411            0            0            0   0.80264915 
Loop time of 175.43 on 48 procs for 50000 steps with 4550 atoms

Performance: 24.625 ns/day, 0.975 hours/ns, 285.015 timesteps/s
57.8% CPU use with 48 MPI tasks x 1 OpenMP threads

MPI task timing breakdown:
Section |  min time  |  avg time  |  max time  |%varavg| %total
---------------------------------------------------------------
Pair    | 44.713     | 53.414     | 61.972     |  51.0 | 30.45
Bond    | 3.052      | 3.7049     | 4.428      |  15.7 |  2.11
Kspace  | 20.012     | 31.843     | 40.778     |  77.4 | 18.15
Neigh   | 11.239     | 12.156     | 12.972     |  16.8 |  6.93
Comm    | 39.3       | 45.885     | 55.372     |  50.2 | 26.16
Output  | 0.05829    | 0.059132   | 0.07002    |   0.7 |  0.03
Modify  | 17.541     | 22.535     | 26.084     |  43.0 | 12.85
Other   |            | 5.832      |            |       |  3.32

Nlocal:    94.7917 ave 106 max 79 min
Histogram: 1 1 7 4 4 8 4 9 5 5
Nghost:    4449.04 ave 4496 max 4408 min
Histogram: 3 3 6 11 4 6 6 3 4 2
Neighs:    42695.9 ave 52702 max 33996 min
Histogram: 2 6 4 7 7 11 5 0 3 3

Total # of neighbors = 2049402
Ave neighs/atom = 450.418
Ave special neighs/atom = 10.0879
Neighbor list builds = 5603
Dangerous builds = 0

unfix npt_density

fix reshape_box all deform 1 x final 0.0 36.6857 y final 0.0 36.6857 z final 0.0 36.6857 units box

run 100000
Ewald initialization ...
  using 12-bit tables for long-range coulomb (src/kspace.cpp:332)
  G vector (1/distance) = 0.168853
  estimated absolute RMS force accuracy = 0.0430318
  estimated relative force accuracy = 0.000129589
  KSpace vectors: actual max1d max3d = 128 4 364
                  kxmax kymax kzmax  = 4 4 4
Per MPI rank memory allocation (min/avg/max) = 23.16 | 23.29 | 23.69 Mbytes
Step Volume Temp Press KinEng PotEng TotEng Enthalpy E_vdwl E_coul E_pair E_bond E_angle E_dihed E_impro E_mol E_long E_tail Lx Ly Lz Xy Xz Yz Density 
   50395    46420.827    310.96812     396.3421     4216.636    1603.1474    5819.7834     6088.107   -1614.0373    3821.3929   -2612.1776    1446.1204     2131.037    638.16751            0    4215.3249   -4819.5331    -68.03192    35.939411    35.939411    35.939411            0            0            0   0.80264915 
   51000    46438.324    310.96812    116.04547     4216.636    1604.0239    5820.6599    5899.2523    -1615.267    3821.3971   -2613.3996     1448.219     2131.037    638.16751            0    4217.4236   -4819.5298   -68.006286    35.943926    35.943926    35.943926            0            0            0   0.80234672 
   52000    46467.256    310.96812   -345.90375     4216.636    1605.9787    5822.6147    5588.2036   -1617.2917    3821.7506   -2615.0653    1451.8395     2131.037    638.16751            0     4221.044   -4819.5242   -67.963944    35.951389    35.951389    35.951389            0            0            0   0.80184716 
   53000    46496.199    310.96812   -808.64222     4216.636    1607.8657    5824.5017    5276.1619   -1619.3075    3821.8453   -2616.9807    1455.6419     2131.037    638.16751            0    4224.8465   -4819.5186   -67.921638    35.958852    35.958852    35.958852            0            0            0   0.80134802 
   54000    46525.155    310.96812   -1269.8637     4216.636    1610.1549    5826.7909    4965.1609   -1621.3073    3822.1443    -2618.676    1459.6263     2131.037    638.16751            0    4228.8309    -4819.513   -67.879366    35.966315    35.966315    35.966315            0            0            0   0.80084929 
   55000    46554.122    310.96812   -1730.4283     4216.636    1612.6707    5829.3067    4654.4425   -1623.2957    3822.4765   -2620.3266    1463.7927     2131.037    638.16751            0    4232.9973   -4819.5074   -67.837129    35.973778    35.973778    35.973778            0            0            0   0.80035098 
   56000    46583.102    310.96812   -2191.5558     4216.636    1615.1677    5831.8037    4342.9335   -1625.2683    3822.5922    -2622.178    1468.1411     2131.037    638.16751            0    4237.3456   -4819.5018   -67.794927    35.981241    35.981241    35.981241            0            0            0   0.79985308 
   57000    46612.093    310.96812   -2652.4993     4216.636    1617.7962    5834.4322    4031.2909   -1627.2273    3822.6438   -2624.0798    1472.6715     2131.037    638.16751            0     4241.876   -4819.4963   -67.752761    35.988704    35.988704    35.988704            0            0            0   0.79935559 
   58000    46641.097    310.96812   -3112.3802     4216.636     1620.734      5837.37    3720.2899    -1629.175    3822.8114   -2625.8543    1477.3838     2131.037    638.16751            0    4246.5883   -4819.4907   -67.710629    35.996166    35.996166    35.996166            0            0            0   0.79885852 
   59000    46670.112    310.96812     -3571.85     4216.636    1623.8493    5840.4853    3409.3566   -1631.1101    3822.9619   -2627.6333    1482.2781     2131.037    638.16751            0    4251.4826   -4819.4851   -67.668532    36.003629    36.003629    36.003629            0            0            0   0.79836185 
   60000     46699.14    310.96812   -4031.2635     4216.636    1627.0697    5843.7057    3098.1772   -1633.0338    3823.0241   -2629.4892    1487.3544     2131.037    638.16751            0    4256.5589   -4819.4795    -67.62647    36.011092    36.011092    36.011092            0            0            0    0.7978656 
   61000    46728.179    310.96812   -4489.7036     4216.636    1630.5828    5847.2188    2787.5641   -1634.9442    3823.1838   -2631.2343    1492.6126     2131.037    638.16751            0    4261.8171   -4819.4739   -67.584443    36.018555    36.018555    36.018555            0            0            0   0.79736976 
   62000    46757.231    310.96812   -4947.8046     4216.636    1634.2588    5850.8948    2476.9559    -1636.843    3823.3127   -2632.9985    1498.0528     2131.037    638.16751            0    4267.2574   -4819.4683   -67.542451    36.026018    36.026018    36.026018            0            0            0   0.79687433 
   63000    46786.295    310.96812   -5405.8828     4216.636    1638.0346    5854.6706    2166.0739    -1638.727    3823.3447    -2634.845     1503.675     2131.037    638.16751            0    4272.8796   -4819.4627   -67.500494    36.033481    36.033481    36.033481            0            0            0   0.79637931 
   64000     46815.37    310.96812   -5862.8142     4216.636    1642.1396    5858.7756    1855.9148   -1640.5962    3823.5092   -2636.5442    1509.4792     2131.037    638.16751            0    4278.6838   -4819.4571   -67.458571    36.040944    36.040944    36.040944            0            0            0    0.7958847 
   65000    46844.458    310.96812   -6320.0337     4216.636    1646.2797    5862.9157    1545.2054   -1642.4551    3823.5165   -2638.3902    1515.4654     2131.037    638.16751            0    4284.6699   -4819.4516   -67.416683    36.048407    36.048407    36.048407            0            0            0    0.7953905 
   66000    46873.558    310.96812   -6776.4877     4216.636    1650.6701    5867.3061    1234.8804   -1644.3022    3823.5803   -2640.1679    1521.6335     2131.037    638.16751            0     4290.838    -4819.446    -67.37483     36.05587     36.05587     36.05587            0            0            0   0.79489671 
   67000     46902.67    310.96812   -7232.6235     4216.636    1655.2185    5871.8546    924.54239    -1646.141    3823.6118   -2641.9696    1527.9836     2131.037    638.16751            0    4297.1882   -4819.4404   -67.333011    36.063332    36.063332    36.063332            0            0            0   0.79440333 
   68000    46931.794    310.96812   -7687.4817     4216.636    1660.1245    5876.7605    615.04767   -1647.9631    3823.8021   -2643.5958    1534.5157     2131.037    638.16751            0    4303.7202   -4819.4348   -67.291227    36.070795    36.070795    36.070795            0            0            0   0.79391036 
   69000     46960.93    310.96812   -8140.6889     4216.636    1665.4615    5882.0975      306.727   -1649.7757    3824.2321   -2644.9728    1541.2298     2131.037    638.16751            0    4310.4343   -4819.4292   -67.249478    36.078258    36.078258    36.078258            0            0            0   0.79341779 
   70000    46990.078    310.96812   -8594.7114     4216.636    1670.7277    5887.3637   -2.6099018   -1651.5745    3824.3955   -2646.6026    1548.1258     2131.037    638.16751            0    4317.3303   -4819.4236   -67.207763    36.085721    36.085721    36.085721            0            0            0   0.79292563 
   71000    47019.238    310.96812   -9048.7081     4216.636     1676.096     5892.732   -312.21464   -1653.3566    3824.4622   -2648.3123    1555.2038     2131.037    638.16751            0    4324.4083    -4819.418   -67.166082    36.093184    36.093184    36.093184            0            0            0   0.79243388 
   72000     47048.41    310.96812   -9501.9604     4216.636    1681.7094    5898.3454   -621.45135   -1655.1327    3824.5863   -2649.9589    1562.4638     2131.037    638.16751            0    4331.6683   -4819.4124   -67.124436    36.100647    36.100647    36.100647            0            0            0   0.79194254 
   73000    47077.594    310.96812   -9953.5002     4216.636    1687.7697    5904.4057   -929.45282   -1656.8938    3824.9601   -2651.3406    1569.9058     2131.037    638.16751            0    4339.1103   -4819.4068   -67.082825     36.10811     36.10811     36.10811            0            0            0    0.7914516 
   74000    47106.791    310.96812   -10405.475     4216.636    1693.8359    5910.4719   -1238.1331    -1658.644    3825.1469   -2652.8983    1577.5297     2131.037    638.16751            0    4346.7342   -4819.4013   -67.041247    36.115573    36.115573    36.115573            0            0            0   0.79096107 
   75000    47135.999    310.96812   -10856.335     4216.636    1700.2261    5916.8621   -1546.1103   -1660.3829    3825.4646    -2654.314    1585.3356     2131.037    638.16751            0    4354.5401   -4819.3957   -66.999705    36.123036    36.123036    36.123036            0            0            0   0.79047094 
   76000    47165.219    310.96812   -11306.871     4216.636    1706.7782    5923.4142   -1854.0886   -1662.1095    3825.7497   -2655.7499    1593.3235     2131.037    638.16751            0     4362.528   -4819.3901   -66.958196    36.130498    36.130498    36.130498            0            0            0   0.78998122 
   77000    47194.452    310.96812   -11756.456     4216.636    1713.6213    5930.2573   -2161.5075    -1663.824    3826.1319   -2657.0767    1601.4934     2131.037    638.16751            0    4370.6979   -4819.3845   -66.916722    36.137961    36.137961    36.137961            0            0            0    0.7894919 
   78000    47223.696    310.96812   -12206.542     4216.636    1720.4573    5937.0933   -2469.6645   -1665.5258    3826.3122   -2658.5925    1609.8452     2131.037    638.16751            0    4379.0498   -4819.3789   -66.875282    36.145424    36.145424    36.145424            0            0            0   0.78900298 
   79000    47252.953    310.96812   -12656.852     4216.636    1727.3413    5943.9773   -2778.3131   -1667.2202    3826.3512   -2660.2423     1618.379     2131.037    638.16751            0    4387.5836   -4819.3733   -66.833876    36.152887    36.152887    36.152887            0            0            0   0.78851447 
   80000    47282.222    310.96812   -13106.071     4216.636     1734.547     5951.183   -3086.2746   -1668.8985    3826.5138   -2661.7524    1627.0948     2131.037    638.16751            0    4396.2994   -4819.3677   -66.792504     36.16035     36.16035     36.16035            0            0            0   0.78802636 
   81000    47311.503    310.96812    -13554.32     4216.636     1742.049     5958.685   -3393.6569   -1670.5622    3826.7762   -2663.1481    1635.9926     2131.037    638.16751            0    4405.1971   -4819.3621   -66.751167    36.167813    36.167813    36.167813            0            0            0   0.78753866 
   82000    47340.795    310.96812   -14003.296     4216.636    1749.4968    5966.1328   -3701.9798   -1672.2162    3826.7926   -2664.7801    1645.0723     2131.037    638.16751            0    4414.2769   -4819.3565   -66.709863    36.175276    36.175276    36.175276            0            0            0   0.78705136 
   83000      47370.1    310.96812   -14451.793     4216.636    1757.1364    5973.7724   -4010.1665   -1673.8645    3826.8132   -2666.4022    1654.3341     2131.037    638.16751            0    4423.5386   -4819.3509   -66.668594    36.182739    36.182739    36.182739            0            0            0   0.78656446 
   84000    47399.417    310.96812   -14898.566     4216.636    1765.2295    5981.8655   -4317.0942   -1675.4959    3827.0884   -2667.7528    1663.7778     2131.037    638.16751            0    4432.9823   -4819.3453   -66.627359    36.190202    36.190202    36.190202            0            0            0   0.78607796 
   85000    47428.747    310.96812   -15345.084     4216.636    1773.4712    5990.1072   -4624.0815   -1677.1163    3827.3192   -2669.1368    1673.4034     2131.037    638.16751            0     4442.608   -4819.3398   -66.586158    36.197664    36.197664    36.197664            0            0            0   0.78559186 
   86000    47458.088    310.96812   -15790.601     4216.636    1782.0134    5998.6494     -4930.46   -1678.7311     3827.663   -2670.4023    1683.2111     2131.037    638.16751            0    4452.4156   -4819.3342    -66.54499    36.205127    36.205127    36.205127            0            0            0   0.78510616 
   87000    47487.441    310.96812   -16236.341     4216.636    1790.6075    6007.2435   -5237.3254   -1680.3296    3827.8604   -2671.7978    1693.2007     2131.037    638.16751            0    4462.4053   -4819.3286   -66.503857     36.21259     36.21259     36.21259            0            0            0   0.78462087 
   88000    47516.807    310.96812   -16681.065     4216.636    1799.5084    6016.1444   -5543.5648   -1681.9158    3828.1704   -2673.0684    1703.3723     2131.037    638.16751            0    4472.5769    -4819.323   -66.462757    36.220053    36.220053    36.220053            0            0            0   0.78413597 
   89000    47546.184    310.96812   -17125.479     4216.636    1808.5704    6025.2064   -5849.8118   -1683.4896    3828.4469   -2674.3601    1713.7259     2131.037    638.16751            0    4482.9305   -4819.3174   -66.421692    36.227516    36.227516    36.227516            0            0            0   0.78365147 
   90000    47575.574    310.96812   -17570.097     4216.636     1817.685     6034.321   -6156.5319   -1685.0549    3828.5857    -2675.781    1724.2615     2131.037    638.16751            0     4493.466   -4819.3118    -66.38066    36.234979    36.234979    36.234979            0            0            0   0.78316737 
   91000    47604.976    310.96812    -18014.28     4216.636    1826.9869    6043.6229   -6463.1465   -1686.6077    3828.7172   -2677.1967     1734.979     2131.037    638.16751            0    4504.1835   -4819.3062   -66.339662    36.242442    36.242442    36.242442            0            0            0   0.78268367 
   92000     47634.39    310.96812   -18458.315     4216.636    1836.4173    6053.0533   -6769.9144   -1688.1458    3828.7806   -2678.6657    1745.8785     2131.037    638.16751            0     4515.083   -4819.3006   -66.298698    36.249905    36.249905    36.249905            0            0            0   0.78220037 
   93000    47663.816    310.96812   -18901.339     4216.636    1846.1514    6062.7874   -7076.0597   -1689.6787    3828.9606   -2680.0132      1756.96     2131.037    638.16751            0    4526.1645    -4819.295   -66.257767    36.257368    36.257368    36.257368            0            0            0   0.78171747 
   94000    47693.254    310.96812    -19344.11     4216.636    1856.0364    6072.6724   -7382.2623   -1691.1952     3829.093   -2681.3916    1768.2234     2131.037    638.16751            0     4537.428   -4819.2894    -66.21687     36.26483     36.26483     36.26483            0            0            0   0.78123496 
   95000    47722.704    310.96812   -19787.118     4216.636    1865.9667    6082.6027    -7688.968   -1692.7064    3829.0834   -2682.9068    1779.6689     2131.037    638.16751            0    4548.8734   -4819.2838   -66.176007    36.272293    36.272293    36.272293            0            0            0   0.78075285 
   96000    47752.166    310.96812   -20228.052     4216.636     1876.425     6093.061   -7994.0852   -1694.2055    3829.4079   -2684.0758    1791.2963     2131.037    638.16751            0    4560.5008   -4819.2782   -66.135177    36.279756    36.279756    36.279756            0            0            0   0.78027114 
   97000    47781.641    310.96812   -20668.891     4216.636    1886.9988    6103.6348   -8299.4039   -1695.6965    3829.6577   -2685.3114    1803.1057     2131.037    638.16751            0    4572.3102   -4819.2726   -66.094381    36.287219    36.287219    36.287219            0            0            0   0.77978982 
   98000    47811.127    310.96812   -21109.235     4216.636    1897.7743    6114.4103   -8604.5581   -1697.1714    3829.9111   -2686.5273     1815.097     2131.037    638.16751            0    4584.3016   -4819.2671   -66.053619    36.294682    36.294682    36.294682            0            0            0    0.7793089 
   99000    47840.626    310.96812   -21550.075     4216.636    1908.5442    6125.1802   -8910.4461   -1698.6341    3829.9648   -2687.9308    1827.2704     2131.037    638.16751            0    4596.4749   -4819.2615    -66.01289    36.302145    36.302145    36.302145            0            0            0   0.77882838 
  100000    47870.137    310.96812   -21990.146     4216.636     1919.571     6136.207   -9215.9244   -1700.0859    3830.0825   -2689.2593    1839.6257     2131.037    638.16751            0    4608.8302   -4819.2559   -65.972195    36.309608    36.309608    36.309608            0            0            0   0.77834825 
  101000     47899.66    310.96812   -22429.465     4216.636    1930.8512    6147.4873   -9521.0057   -1701.5287    3830.2627   -2690.5163     1852.163     2131.037    638.16751            0    4621.3675   -4819.2503   -65.931532    36.317071    36.317071    36.317071            0            0            0   0.77786851 
  102000    47929.195    310.96812   -22868.237     4216.636    1942.3412    6158.9772   -9825.8778   -1702.9633    3830.4624   -2691.7456    1864.8823     2131.037    638.16751            0    4634.0868   -4819.2447   -65.890904    36.324534    36.324534    36.324534            0            0            0   0.77738917 
  103000    47958.743    310.96812    -23308.34     4216.636    1953.6535    6170.2895   -10132.241   -1704.3797    3830.2842   -2693.3345    1877.7835     2131.037    638.16751            0    4646.9881   -4819.2391   -65.850309    36.331996    36.331996    36.331996            0            0            0   0.77691022 
  104000    47988.302    310.96812   -23746.509     4216.636    1965.4634    6182.0994   -10437.136   -1705.7933     3830.419   -2694.6079    1890.8667     2131.037    638.16751            0    4660.0713   -4819.2335   -65.809747    36.339459    36.339459    36.339459            0            0            0   0.77643167 
  105000    48017.874    310.96812   -24183.664     4216.636    1977.5834    6194.2195   -10741.393   -1707.1942    3830.6691    -2695.753    1904.1319     2131.037    638.16751            0    4673.3365   -4819.2279   -65.769218    36.346922    36.346922    36.346922            0            0            0    0.7759535 
  106000    48047.457    310.96812   -24620.934     4216.636    1989.7788    6206.4148   -11046.037   -1708.5799    3830.7974   -2697.0049    1917.5791     2131.037    638.16751            0    4686.7836   -4819.2223   -65.728723    36.354385    36.354385    36.354385            0            0            0   0.77547574 
  107000    48077.053    310.96812   -25057.706     4216.636    2002.1743    6218.8103   -11350.513   -1709.9575    3830.9357   -2698.2385    1931.2082     2131.037    638.16751            0    4700.4128   -4819.2167   -65.688261    36.361848    36.361848    36.361848            0            0            0   0.77499836 
  108000    48106.661    310.96812   -25492.793     4216.636    2015.0186    6231.6546    -11653.74   -1711.3291    3831.3349   -2699.2054    1945.0194     2131.037    638.16751            0    4714.2239   -4819.2111   -65.647832    36.369311    36.369311    36.369311            0            0            0   0.77452137 
  109000    48136.281    310.96812   -25928.212     4216.636    2027.8934    6244.5294    -11957.55   -1712.6841    3831.5659   -2700.3237    1959.0125     2131.037    638.16751            0     4728.217   -4819.2055   -65.607436    36.376774    36.376774    36.376774            0            0            0   0.77404478 
  110000    48165.914    310.96812   -26364.614     4216.636    2040.6589    6257.2949    -12262.54   -1714.0306    3831.4974   -2701.7332    1973.1875     2131.037    638.16751            0    4742.3921   -4819.1999   -65.567073    36.384237    36.384237    36.384237            0            0            0   0.77356858 
  111000    48195.558    310.96812   -26799.004     4216.636    2053.9438    6270.5798   -12565.979   -1715.3665    3831.7554   -2702.8054    1987.5446     2131.037    638.16751            0    4756.7491   -4819.1943   -65.526744      36.3917      36.3917      36.3917            0            0            0   0.77309277 
  112000    48225.215    310.96812   -27233.198     4216.636    2067.3652    6284.0012   -12869.523   -1716.6984    3831.9641   -2703.9229    2002.0836     2131.037    638.16751            0    4771.2882   -4819.1887   -65.486448    36.399162    36.399162    36.399162            0            0            0   0.77261734 
  113000    48254.884    310.96812   -27667.094     4216.636     2080.948    6297.5841   -13173.078   -1718.0172    3832.1392   -2705.0611    2016.8046     2131.037    638.16751            0    4786.0092   -4819.1831   -65.446184    36.406625    36.406625    36.406625            0            0            0   0.77214231 
  114000    48284.564    310.96812   -28101.483     4216.636    2094.5258    6311.1618   -13477.364   -1719.3242    3832.1154   -2706.3864    2031.7076     2131.037    638.16751            0    4800.9122   -4819.1775   -65.405954    36.414088    36.414088    36.414088            0            0            0   0.77166767 
  115000    48314.258    310.96812   -28535.154     4216.636    2108.3525    6324.9885   -13781.277   -1720.6203    3832.1477   -2707.6446    2046.7926     2131.037    638.16751            0    4815.9971    -4819.172   -65.365756    36.421551    36.421551    36.421551            0            0            0   0.77119341 
  116000    48343.963    310.96812   -28968.391     4216.636    2122.3689    6339.0049   -14085.075   -1721.9051    3832.1763   -2708.8951    2062.0595     2131.037    638.16751            0     4831.264   -4819.1664   -65.325592    36.429014    36.429014    36.429014            0            0            0   0.77071955 
  117000     48373.68    310.96812   -29399.679     4216.636    2136.8922    6353.5282   -14387.372   -1723.1822    3832.5222   -2709.8208    2077.5084     2131.037    638.16751            0    4846.7129   -4819.1608    -65.28546    36.436477    36.436477    36.436477            0            0            0   0.77024607 
  118000     48403.41    310.96812   -29830.776     4216.636    2151.5551    6368.1911   -14689.774   -1724.4462    3832.8126   -2710.7887    2093.1393     2131.037    638.16751            0    4862.3438   -4819.1552   -65.245362     36.44394     36.44394     36.44394            0            0            0   0.76977298 
  119000    48433.152    310.96812   -30261.767     4216.636    2166.3395    6382.9755   -14992.358    -1725.699    3833.0314   -2711.8172    2108.9522     2131.037    638.16751            0    4878.1567   -4819.1496   -65.205296    36.451403    36.451403    36.451403            0            0            0   0.76930028 
  120000    48462.906    310.96812   -30692.485     4216.636    2181.2768    6397.9128   -15294.976   -1726.9488     3833.218   -2712.8747     2124.947     2131.037    638.16751            0    4894.1515    -4819.144   -65.165263    36.458866    36.458866    36.458866            0            0            0   0.76882796 
  121000    48492.672    310.96812    -31122.99     4216.636    2196.3589    6412.9949   -15597.678   -1728.1834    3833.3523   -2713.9695    2141.1238     2131.037    638.16751            0    4910.3283   -4819.1384   -65.125262    36.466328    36.466328    36.466328            0            0            0   0.76835603 
  122000    48522.451    310.96812    -31552.26     4216.636    2211.7999    6428.4359   -15899.526   -1729.4092    3833.6548   -2714.8872    2157.4826     2131.037    638.16751            0    4926.6871   -4819.1328   -65.085295    36.473791    36.473791    36.473791            0            0            0   0.76788449 
  123000    48552.241    310.96812   -31981.927     4216.636    2227.2574    6443.8934   -16202.017   -1730.6209    3833.7776   -2715.9705    2174.0234     2131.037    638.16751            0    4943.2279   -4819.1272    -65.04536    36.481254    36.481254    36.481254            0            0            0   0.76741334 
  124000    48582.044    310.96812   -32410.718     4216.636    2242.9962    6459.6322   -16503.986   -1731.8278     3833.995   -2716.9544    2190.7461     2131.037    638.16751            0    4959.9506   -4819.1216   -65.005458    36.488717    36.488717    36.488717            0            0            0   0.76694256 
  125000    48611.859    310.96812   -32838.429     4216.636    2259.0631    6475.6991    -16805.24   -1733.0228    3834.3465   -2717.7923    2207.6508     2131.037    638.16751            0    4976.8554    -4819.116   -64.965588     36.49618     36.49618     36.49618            0            0            0   0.76647218 
  126000    48641.686    310.96812   -33266.959     4216.636    2275.0543    6491.6903   -17107.528     -1734.21    3834.4326   -2718.8878    2224.7375     2131.037    638.16751            0     4993.942   -4819.1104   -64.925751    36.503643    36.503643    36.503643            0            0            0   0.76600218 
  127000    48671.525    310.96812   -33694.704     4216.636    2291.3098    6507.9459   -17409.373   -1735.3889    3834.5928   -2719.9009    2242.0062     2131.037    638.16751            0    5011.2107   -4819.1048   -64.885947    36.511106    36.511106    36.511106            0            0            0   0.76553256 
  128000    48701.377    310.96812    -34122.13     4216.636    2307.7314    6524.3674   -17711.204   -1736.5587    3834.7279     -2720.93    2259.4568     2131.037    638.16751            0    5028.6614   -4819.0992   -64.846175    36.518569    36.518569    36.518569            0            0            0   0.76506332 
  129000    48731.241    310.96812   -34548.955     4216.636    2324.3817    6541.0177   -18012.758   -1737.7121    3834.8934   -2721.9123    2277.0894     2131.037    638.16751            0     5046.294   -4819.0936   -64.806435    36.526032    36.526032    36.526032            0            0            0   0.76459447 
  130000    48761.117    310.96812   -34975.062     4216.636    2341.2809    6557.9169   -18313.929   -1738.8617     3835.122   -2722.8277     2294.904     2131.037    638.16751            0    5064.1086    -4819.088   -64.766728    36.533494    36.533494    36.533494            0            0            0   0.76412601 
  131000    48791.005    310.96812   -35400.324     4216.636    2358.4592    6575.0952   -18614.598        -1740    3835.4365    -2723.646    2312.9006     2131.037    638.16751            0    5082.1051   -4819.0824   -64.727054    36.540957    36.540957    36.540957            0            0            0   0.76365792 
  132000    48820.905    310.96812   -35825.608     4216.636     2375.732     6592.368   -18915.566   -1741.1281    3835.6533   -2724.5517    2331.0792     2131.037    638.16751            0    5100.2837   -4819.0768   -64.687412     36.54842     36.54842     36.54842            0            0            0   0.76319022 
  133000    48850.818    310.96812   -36250.842     4216.636    2393.1144    6609.7505   -19216.766    -1742.246    3835.7875   -2725.5298    2349.4397     2131.037    638.16751            0    5118.6442   -4819.0712   -64.647802    36.555883    36.555883    36.555883            0            0            0    0.7627229 
  134000    48880.743    310.96812   -36674.603     4216.636    2410.9091    6627.5451   -19516.881   -1743.3558    3836.1438   -2726.2776    2367.9822     2131.037    638.16751            0    5137.1867   -4819.0656   -64.608225    36.563346    36.563346    36.563346            0            0            0   0.76225596 
  135000     48910.68    310.96812   -37098.952     4216.636    2428.6785    6645.3145   -19817.817   -1744.4543    3836.2816   -2727.2327    2386.7067     2131.037    638.16751            0    5155.9112     -4819.06    -64.56868    36.570809    36.570809    36.570809            0            0            0    0.7617894 
  136000    48940.629    310.96812   -37523.172     4216.636    2446.5731    6663.2091   -20118.912   -1745.5467    3836.3566   -2728.2445    2405.6131     2131.037    638.16751            0    5174.8177   -4819.0544   -64.529167    36.578272    36.578272    36.578272            0            0            0   0.76132322 
  137000     48970.59    310.96812   -37947.043     4216.636    2464.6432    6681.2792   -20419.961   -1746.6243    3836.4103   -2729.2629    2424.7015     2131.037    638.16751            0    5193.9061   -4819.0488   -64.489686    36.585735    36.585735    36.585735            0            0            0   0.76085743 
  138000    49000.564    310.96812   -38370.702     4216.636     2482.858     6699.494   -20721.091   -1747.6926    3836.4173   -2730.3185    2443.9719     2131.037    638.16751            0    5213.1765   -4819.0433   -64.450238    36.593197    36.593197    36.593197            0            0            0   0.76039201 
  139000     49030.55    310.96812   -38793.154     4216.636    2501.4292    6718.0652   -21021.378   -1748.7527    3836.5907   -2731.1997    2463.4243     2131.037    638.16751            0    5232.6289   -4819.0377   -64.410821     36.60066     36.60066     36.60066            0            0            0   0.75992697 
  140000    49060.548    310.96812   -39215.151     4216.636     2520.196     6736.832   -21321.521   -1749.8045    3836.7694   -2732.0672    2483.0587     2131.037    638.16751            0    5252.2632   -4819.0321   -64.371437    36.608123    36.608123    36.608123            0            0            0   0.75946231 
  141000    49090.558    310.96812   -39635.654     4216.636    2539.3831    6756.0191    -21620.55   -1750.8436    3837.1736   -2732.6965     2502.875     2131.037    638.16751            0    5272.0796   -4819.0265   -64.332085    36.615586    36.615586    36.615586            0            0            0   0.75899803 
  142000    49120.581    310.96812   -40056.047     4216.636    2558.6933    6775.3293   -21919.753   -1751.8742    3837.5105   -2733.3846    2522.8733     2131.037    638.16751            0    5292.0779   -4819.0209   -64.292765    36.623049    36.623049    36.623049            0            0            0   0.75853413 
  143000    49150.616    310.96812   -40475.882     4216.636    2578.2201    6794.8561   -22218.714   -1752.9016    3837.8789    -2734.038    2543.0536     2131.037    638.16751            0    5312.2581   -4819.0153   -64.253477    36.630512    36.630512    36.630512            0            0            0   0.75807061 
  144000    49180.663    310.96812   -40896.359     4216.636    2597.7111    6814.3471   -22518.547   -1753.9156    3838.0159   -2734.9094    2563.4159     2131.037    638.16751            0    5332.6204   -4819.0097   -64.214222    36.637975    36.637975    36.637975            0            0            0   0.75760746 
  145000    49210.722    310.96812   -41316.545     4216.636    2617.3634    6833.9994   -22818.385    -1754.921    3838.1238   -2735.8012    2583.9601     2131.037    638.16751            0    5353.1646   -4819.0041   -64.174998    36.645438    36.645438    36.645438            0            0            0   0.75714469 
  146000    49240.794    310.96812   -41736.131     4216.636    2637.2454    6853.8814   -23117.939   -1755.9142    3838.2672   -2736.6455    2604.6863     2131.037    638.16751            0    5373.8909   -4818.9985   -64.135806    36.652901    36.652901    36.652901            0            0            0    0.7566823 
  147000    49270.878    310.96812   -42154.678     4216.636    2657.4483    6874.0843   -23416.801   -1756.9033    3838.5454   -2737.3508    2625.5945     2131.037    638.16751            0     5394.799   -4818.9929   -64.096646    36.660363    36.660363    36.660363            0            0            0   0.75622028 
  148000    49300.974    310.96812   -42573.629     4216.636    2677.6647    6894.3007   -23716.315   -1757.8829    3838.6456   -2738.2245    2646.6847     2131.037    638.16751            0    5415.8892   -4818.9873   -64.057517    36.667826    36.667826    36.667826            0            0            0   0.75575864 
  149000    49331.082    310.96812   -42991.782     4216.636     2698.151     6914.787    -24015.36   -1758.8553    3838.8267   -2739.0103    2667.9568     2131.037    638.16751            0    5437.1614   -4818.9817   -64.018421    36.675289    36.675289    36.675289            0            0            0   0.75529738 
  150000    49361.203    310.96812   -43409.652     4216.636     2718.801     6935.437   -24314.413   -1759.8123    3838.9739   -2739.8145    2689.4109     2131.037    638.16751            0    5458.6155   -4818.9761   -63.979356    36.682752    36.682752    36.682752            0            0            0   0.75483649 
  150395    49373.104    310.96812   -43574.682     4216.636    2726.9916    6943.6276   -24432.587   -1760.1881    3839.0136   -2740.1484    2697.9354     2131.037    638.16751            0      5467.14   -4818.9739   -63.963935      36.6857      36.6857      36.6857            0            0            0   0.75465454 
Loop time of 273.573 on 48 procs for 100000 steps with 4550 atoms

Performance: 31.582 ns/day, 0.760 hours/ns, 365.533 timesteps/s
60.2% CPU use with 48 MPI tasks x 1 OpenMP threads

MPI task timing breakdown:
Section |  min time  |  avg time  |  max time  |%varavg| %total
---------------------------------------------------------------
Pair    | 84.101     | 103.54     | 130.83     | 109.1 | 37.85
Bond    | 4.6276     | 6.5987     | 8.3688     |  34.8 |  2.41
Kspace  | 33.405     | 60.497     | 79.353     | 147.6 | 22.11
Neigh   | 0.024217   | 0.026284   | 0.028005   |   0.8 |  0.01
Comm    | 69.452     | 83.16      | 103.14     |  79.8 | 30.40
Output  | 0.11198    | 0.12542    | 0.14546    |   1.5 |  0.05
Modify  | 0.53074    | 0.63661    | 1.3682     |  19.2 |  0.23
Other   |            | 18.99      |            |       |  6.94

Nlocal:    94.7917 ave 108 max 78 min
Histogram: 1 1 5 5 5 8 7 7 5 4
Nghost:    4261.96 ave 4305 max 4215 min
Histogram: 2 1 5 9 7 1 8 10 4 1
Neighs:    40282.2 ave 50522 max 31641 min
Histogram: 2 6 3 8 9 11 3 1 3 2

Total # of neighbors = 1933545
Ave neighs/atom = 424.955
Ave special neighs/atom = 10.0879
Neighbor list builds = 12
Dangerous builds = 0
# >>>>>>>>>  Equilibration run <<<<<<<<<<<<<<<<<<<<<<<<<<<<<<<<<<

fix             NVT_equib all nvt temp ${simulationTemp} ${simulationTemp} 100
fix             NVT_equib all nvt temp 310 ${simulationTemp} 100
fix             NVT_equib all nvt temp 310 310 100

print           "Step Density Temperature Pressure KinEng PotEng TotEng" file Properties_equib_acetone75p.txt
Step Density Temperature Pressure KinEng PotEng TotEng
fix             PRINT_equib all print ${printfreq} "$(v_step) $(v_density) $(v_temp) $(v_press) $(v_pe) $(v_ke) $(v_etotal) $(v_enthalpy)" append Properties_equib_acetone75p.txt title ""
fix             PRINT_equib all print 1000 "$(v_step) $(v_density) $(v_temp) $(v_press) $(v_pe) $(v_ke) $(v_etotal) $(v_enthalpy)" append Properties_equib_acetone75p.txt title ""
# The 'print' and fix print' commands as used above will create a file named 'Properties_equib.txt' which allows you to quickly make plots to test for equilibration


run             ${NVT_equib}
run             100000
Ewald initialization ...
  using 12-bit tables for long-range coulomb (src/kspace.cpp:332)
  G vector (1/distance) = 0.168218
  estimated absolute RMS force accuracy = 0.0452731
  estimated relative force accuracy = 0.000136339
  KSpace vectors: actual max1d max3d = 128 4 364
                  kxmax kymax kzmax  = 4 4 4
Per MPI rank memory allocation (min/avg/max) = 23.16 | 23.29 | 23.69 Mbytes
Step Volume Temp Press KinEng PotEng TotEng Enthalpy E_vdwl E_coul E_pair E_bond E_angle E_dihed E_impro E_mol E_long E_tail Lx Ly Lz Xy Xz Yz Density 
  150395    49373.104    310.96812   -43575.339     4216.636    2727.0244    6943.6604   -24433.027   -1760.1891    3821.0021   -2740.1372    2697.9571     2131.037    638.16751            0    5467.1616   -4800.9502   -63.963935      36.6857      36.6857      36.6857            0            0            0   0.75465454 
151000 0.75465454457802394472 305.14390144388801218 -4106.3957983689197135 1684.7386669752099806 4137.66126093856019 5822.3999279137797203 2865.564677568139814
  151000    49373.104     305.1439   -4106.3958    4137.6613    1684.7387    5822.3999    2865.5647   -1480.5175      3787.93   -2493.5076    1508.2756    2093.0888    576.88186            0    4178.2463   -4800.9201   -63.963935      36.6857      36.6857      36.6857            0            0            0   0.75465454 
152000 0.75465454457802394472 309.0223535090070186 -1590.2022602674999234 1642.0593882830598886 4190.2519264780603407 5832.3113147611102249 4687.2765131460600969
  152000    49373.104    309.02235   -1590.2023    4190.2519    1642.0594    5832.3113    4687.2765   -1504.6204     3843.813   -2460.0255    1453.8304    2065.2689    582.98552            0    4102.0849   -4799.2182   -63.963935      36.6857      36.6857      36.6857            0            0            0   0.75465454 
153000 0.75465454457802394472 308.36182743813998286 -383.3518346881670027 1659.8922723344699079 4181.2953878668204197 5841.1876602012898729 5565.1528418964198863
  153000    49373.104    308.36183   -383.35183    4181.2954    1659.8923    5841.1877    5565.1528   -1486.4499    3777.8217   -2505.8447    1460.9384    2122.6549    582.14377            0     4165.737   -4797.2165   -63.963935      36.6857      36.6857      36.6857            0            0            0   0.75465454 
154000 0.75465454457802394472 310.16996553769700995 -585.44833160358405166 1776.6294618847200582 4205.8132069468001646 5982.4426688315297724 5560.8870397250702808
  154000    49373.104    310.16997   -585.44833    4205.8132    1776.6295    5982.4427     5560.887   -1517.4895    3810.0683   -2509.8204    1506.9307     2170.101    609.41812            0    4286.4498   -4802.3991   -63.963935      36.6857      36.6857      36.6857            0            0            0   0.75465454 
155000 0.75465454457802394472 309.20403866796402781 -1533.4223442022400832 1638.1774318858099377 4192.7155236214002798 5830.8929555072099902 4726.7428775225798745
  155000    49373.104    309.20404   -1533.4223    4192.7155    1638.1774     5830.893    4726.7429   -1504.0765    3815.4152   -2486.9286    1425.9996    2124.7091    574.39737            0     4125.106   -4798.2673   -63.963935      36.6857      36.6857      36.6857            0            0            0   0.75465454 
156000 0.75465454457802394472 307.39950345028699985 533.79670307221203984 1704.6922496866100118 4168.2465585565396395 5872.9388082431496514 6257.3023683240198807
  156000    49373.104     307.3995     533.7967    4168.2466    1704.6922    5872.9388    6257.3024   -1467.2216    3799.8314   -2468.4671    1424.5924    2166.8221    581.74491            0    4173.1594   -4801.0769   -63.963935      36.6857      36.6857      36.6857            0            0            0   0.75465454 
157000 0.75465454457802394472 302.5039539215520108 -823.48444303385497278 1581.5262193147800645 4101.8643515381299949 5683.3905708529100593 5090.4355930982301288
  157000    49373.104    302.50395   -823.48444    4101.8644    1581.5262    5683.3906    5090.4356    -1512.123     3841.765   -2471.6826    1352.9049    2102.3137    597.99021            0    4053.2088   -4801.3246   -63.963935      36.6857      36.6857      36.6857            0            0            0   0.75465454 
158000 0.75465454457802394472 310.7734904097030153 206.17498279066398936 1659.8533531929899709 4213.9968261215599341 5873.8501793145496777 6022.3077286567204283
  158000    49373.104    310.77349    206.17498    4213.9968    1659.8534    5873.8502    6022.3077   -1507.2145    3861.1212   -2446.6628    1402.3752     2111.493    592.64795            0    4106.5161   -4800.5694   -63.963935      36.6857      36.6857      36.6857            0            0            0   0.75465454 
159000 0.75465454457802394472 312.5783112983650085 -210.99313658471399435 1648.8307043642400913 4238.4696648006602118 5887.3003691649000757 5735.3734789020400058
  159000    49373.104    312.57831   -210.99314    4238.4697    1648.8307    5887.3004    5735.3735   -1481.4759    3818.0263   -2465.5217    1376.2869    2154.2079    583.85756            0    4114.3524   -4802.0721   -63.963935      36.6857      36.6857      36.6857            0            0            0   0.75465454 
160000 0.75465454457802394472 310.38185986793700977 493.88428739131200018 1681.5884957331300029 4208.6864315385400914 5890.2749272716800988 6245.8993098824603294
  160000    49373.104    310.38186    493.88429    4208.6864    1681.5885    5890.2749    6245.8993   -1453.8042    3830.8932   -2425.5691    1395.2413    2127.3258    584.59054            0    4107.1576    -4802.658   -63.963935      36.6857      36.6857      36.6857            0            0            0   0.75465454 
161000 0.75465454457802394472 313.23981994267899154 616.13880042335199505 1677.3063059433100079 4247.4395268178896004 5924.7458327612102948 6368.4003204560103768
  161000    49373.104    313.23982     616.1388    4247.4395    1677.3063    5924.7458    6368.4003   -1466.8428    3796.3935   -2472.0107    1462.3289     2089.274    597.71405            0     4149.317   -4801.5614   -63.963935      36.6857      36.6857      36.6857            0            0            0   0.75465454 
162000 0.75465454457802394472 304.60699504058601406 207.57539890275398875 1631.9014440381899931 4130.3809685414998967 5762.2824125796896624 5911.7483400540895673
  162000    49373.104      304.607     207.5754     4130.381    1631.9014    5762.2824    5911.7483   -1491.0345    3819.3143   -2474.6675    1435.3831    2087.5623    583.62355            0    4106.5689   -4802.9472   -63.963935      36.6857      36.6857      36.6857            0            0            0   0.75465454 
163000 0.75465454457802394472 308.03650873363102392 -524.93383122899194859 1808.497881809179944 4176.8841622295503839 5985.3820440387298731 5607.4002486907502316
  163000    49373.104    308.03651   -524.93383    4176.8842    1808.4979     5985.382    5607.4002   -1484.0185    3835.1921   -2451.9961    1451.9014    2190.0984    618.49422            0     4260.494   -4803.1697   -63.963935      36.6857      36.6857      36.6857            0            0            0   0.75465454 
164000 0.75465454457802394472 311.94606866707897552 -2880.6736623007100206 1686.6645508659998995 4229.8966412841900819 5916.5611921501904362 3842.3146149409799364
  164000    49373.104    311.94607   -2880.6737    4229.8966    1686.6646    5916.5612    3842.3146   -1488.4318     3809.377    -2478.676    1435.2043    2125.6537    604.48248            0    4165.3405   -4799.6212   -63.963935      36.6857      36.6857      36.6857            0            0            0   0.75465454 
165000 0.75465454457802394472 309.39057626390200539 -160.3607209312440034 1669.7070912974199928 4195.2449183783201079 5864.9520096757396459 5749.4832980116898398
  165000    49373.104    309.39058   -160.36072    4195.2449    1669.7071     5864.952    5749.4833   -1480.2814     3811.971   -2466.5856    1442.4038     2100.732    593.15694            0    4136.2927   -4798.2753   -63.963935      36.6857      36.6857      36.6857            0            0            0   0.75465454 
166000 0.75465454457802394472 310.92608519578300275 -1294.8107980944500923 1823.5172697211999093 4216.0659663927399379 6039.5832361139300701 5107.2468520141501358
  166000    49373.104    310.92609   -1294.8108     4216.066    1823.5173    6039.5832    5107.2469   -1450.6196    3841.5897   -2407.8703    1450.5286     2152.811    628.04791            0    4231.3875   -4798.8403   -63.963935      36.6857      36.6857      36.6857            0            0            0   0.75465454 
167000 0.75465454457802394472 302.20070146550398249 -1773.9047915324899805 1754.1082157707201077 4097.7523377186298603 5851.8605534893604272 4574.5496278246400834
  167000    49373.104     302.2007   -1773.9048    4097.7523    1754.1082    5851.8606    4574.5496   -1488.4086    3853.4089   -2433.3577    1453.3586     2108.764    625.34344            0     4187.466    -4798.358   -63.963935      36.6857      36.6857      36.6857            0            0            0   0.75465454 
168000 0.75465454457802394472 311.16449791396297542 -2024.2009602971700133 1676.3141273568699035 4219.2987724998201884 5895.6128998566900918 4438.0746967522800333
  168000    49373.104     311.1645    -2024.201    4219.2988    1676.3141    5895.6129    4438.0747   -1486.8652    3850.6154    -2436.431    1431.7346    2102.3637    578.64683            0    4112.7452   -4800.1813   -63.963935      36.6857      36.6857      36.6857            0            0            0   0.75465454 
169000 0.75465454457802394472 313.5261366032249839 -369.73501284739501216 1613.2704144352699132 4251.3218962478404137 5864.5923106831096447 5598.3623676979696029
  169000    49373.104    313.52614   -369.73501    4251.3219    1613.2704    5864.5923    5598.3624   -1486.7777    3837.1322   -2450.9516    1384.0279    2101.6061    578.58805            0     4064.222   -4801.3061   -63.963935      36.6857      36.6857      36.6857            0            0            0   0.75465454 
170000 0.75465454457802394472 311.52884675022198735 -1203.7234991881400674 1744.4048906289799561 4224.2392352065098748 5968.6441258354898309 5101.895704876509626
  170000    49373.104    311.52885   -1203.7235    4224.2392    1744.4049    5968.6441    5101.8957   -1482.2635    3845.4006    -2437.946    1472.2135    2101.8677     608.2697            0    4182.3509   -4801.0831   -63.963935      36.6857      36.6857      36.6857            0            0            0   0.75465454 
171000 0.75465454457802394472 305.73795914636701809 -822.1814488097489857 1688.3434369270300976 4145.716508088129558 5834.0599450151503333 5242.0431961702097396
  171000    49373.104    305.73796   -822.18145    4145.7165    1688.3434    5834.0599    5242.0432   -1479.9477    3823.5018   -2456.8089    1414.4584    2111.4782    619.21571            0    4145.1523   -4800.3631   -63.963935      36.6857      36.6857      36.6857            0            0            0   0.75465454 
172000 0.75465454457802394472 310.85319062399702261 132.02303133912599264 1771.5413893702700534 4215.0775375092398463 5986.6189268794996678 6081.6829129365896733
  172000    49373.104    310.85319    132.02303    4215.0775    1771.5414    5986.6189    6081.6829   -1470.6109    3844.9571   -2428.1784    1422.9984    2158.6048    618.11653            0    4199.7198   -4802.5246   -63.963935      36.6857      36.6857      36.6857            0            0            0   0.75465454 
173000 0.75465454457802394472 305.58304914962798193 -1727.4136032673200134 1694.2742694660898906 4143.61597424358024 5837.8902437096703579 4594.0555806954098443
  173000    49373.104    305.58305   -1727.4136     4143.616    1694.2743    5837.8902    4594.0556   -1483.2149    3829.8349   -2453.4058    1447.7514    2060.3149    639.61379            0    4147.6801   -4800.0259   -63.963935      36.6857      36.6857      36.6857            0            0            0   0.75465454 
174000 0.75465454457802394472 306.09714218638401917 -1302.8799359802499112 1638.4623285574400597 4150.5869241221098491 5789.0492526795496815 4850.9026368066497525
  174000    49373.104    306.09714   -1302.8799    4150.5869    1638.4623    5789.0493    4850.9026   -1502.4321    3862.8411   -2441.5407    1364.1284    2090.1771    625.69748            0     4080.003   -4801.9497   -63.963935      36.6857      36.6857      36.6857            0            0            0   0.75465454 
175000 0.75465454457802394472 306.93649798857200039 -1069.1883116524400066 1747.5361456319899389 4161.9683411205296579 5909.5044867525102745 5139.6289451870397897
  175000    49373.104     306.9365   -1069.1883    4161.9683    1747.5361    5909.5045    5139.6289   -1493.7262    3837.4265   -2455.6637    1450.7904    2131.6097    620.79969            0    4203.1998    -4799.364   -63.963935      36.6857      36.6857      36.6857            0            0            0   0.75465454 
176000 0.75465454457802394472 307.37597512534000543 -338.27873154247799903 1723.3002402923000318 4167.9275214130602762 5891.2277617053596259 5647.6481052425597227
  176000    49373.104    307.37598   -338.27873    4167.9275    1723.3002    5891.2278    5647.6481   -1480.1114    3802.0396   -2474.8009    1464.4055    2095.3885    638.30718            0    4198.1011    -4796.729   -63.963935      36.6857      36.6857      36.6857            0            0            0   0.75465454 
177000 0.75465454457802394472 312.59912918235897905 -1203.953920994390046 1631.4458617413099546 4238.751949164619873 5870.197810905930055 5003.2834733250101635
  177000    49373.104    312.59913   -1203.9539    4238.7519    1631.4459    5870.1978    5003.2835   -1476.6315    3829.8667   -2445.1216    1432.8844    2034.4793    609.20386            0    4076.5675   -4798.3568   -63.963935      36.6857      36.6857      36.6857            0            0            0   0.75465454 
178000 0.75465454457802394472 311.74044613969698503 -760.49611757732998285 1720.1770368502600377 4227.1084604885099907 5947.2854973387702557 5399.685646126949905
  178000    49373.104    311.74045   -760.49612    4227.1085     1720.177    5947.2855    5399.6856   -1472.3457    3793.9557   -2477.2113    1447.8853    2137.0603    612.44271            0    4197.3884   -4798.8214   -63.963935      36.6857      36.6857      36.6857            0            0            0   0.75465454 
179000 0.75465454457802394472 308.00060593433101985 -1145.0031276387001071 1631.8009364123900014 4176.397330865330332 5808.1982672777103289 4983.7318067132300712
  179000    49373.104    308.00061   -1145.0031    4176.3973    1631.8009    5808.1983    4983.7318   -1462.8599    3825.6067   -2436.0816    1394.3216    2051.6869    621.87409            0    4067.8826   -4798.8285   -63.963935      36.6857      36.6857      36.6857            0            0            0   0.75465454 
180000 0.75465454457802394472 313.07873152314800791 -907.56859645093402378 1632.2105249471198931 4245.2552153834403725 5877.4657403305600383 5223.9654569047097539
  180000    49373.104    313.07873    -907.5686    4245.2552    1632.2105    5877.4657    5223.9655   -1463.0665    3814.9414   -2448.6839    1450.8776    2030.3796    599.63728            0    4080.8944   -4800.5588   -63.963935      36.6857      36.6857      36.6857            0            0            0   0.75465454 
181000 0.75465454457802394472 311.67471121232500764 -741.08333493353904942 1662.3739021051198961 4226.2171142705701641 5888.5910163756998372 5354.9694572835196595
  181000    49373.104    311.67471   -741.08333    4226.2171    1662.3739     5888.591    5354.9695   -1466.1943    3824.6341   -2442.9983    1437.9758    2061.8581    605.53832            0    4105.3722   -4801.4381   -63.963935      36.6857      36.6857      36.6857            0            0            0   0.75465454 
182000 0.75465454457802394472 307.49275087084498637 -1363.9124591746999613 1629.9990781562698885 4169.5109660636198896 5799.5100442198900055 4817.4165891088996432
  182000    49373.104    307.49275   -1363.9125     4169.511    1629.9991      5799.51    4817.4166   -1458.2269     3796.157   -2459.7261    1452.2991    2048.8907    588.53533            0    4089.7251   -4797.6562   -63.963935      36.6857      36.6857      36.6857            0            0            0   0.75465454 
183000 0.75465454457802394472 314.96953277919402581 -1665.5949779433199183 1578.9182782321099694 4270.8939224729601847 5849.8122007050596949 4650.4904145446398616
  183000    49373.104    314.96953    -1665.595    4270.8939    1578.9183    5849.8122    4650.4904   -1491.8287    3813.8981   -2477.9872    1413.5176    2013.1492    630.23869            0    4056.9055   -4800.0566   -63.963935      36.6857      36.6857      36.6857            0            0            0   0.75465454 
184000 0.75465454457802394472 316.89721739829798253 -318.95098671635702203 1697.1410788068499187 4297.0327570819199536 5994.173835888769645 5764.5112395481901331
  184000    49373.104    316.89722   -318.95099    4297.0328    1697.1411    5994.1738    5764.5112   -1490.1357    3832.9269   -2458.0138    1456.9701    2071.0795    627.10521            0    4155.1549    -4800.805   -63.963935      36.6857      36.6857      36.6857            0            0            0   0.75465454 
185000 0.75465454457802394472 308.10567602387999386 -243.37487747787000103 1753.7134425040001133 4177.8220502752601533 5931.5354927792595845 5756.2919331932698697
  185000    49373.104    308.10568   -243.37488    4177.8221    1753.7134    5931.5355    5756.2919   -1481.8463    3869.6856   -2412.9941    1444.7249    2079.4525     642.5302            0    4166.7076   -4800.8334   -63.963935      36.6857      36.6857      36.6857            0            0            0   0.75465454 
186000 0.75465454457802394472 310.52191629322800281 69.410369987399306524 1722.051653273869988 4210.5855553372803115 5932.6372086111496174 5982.6165673470495676
  186000    49373.104    310.52192     69.41037    4210.5856    1722.0517    5932.6372    5982.6166   -1457.3433    3841.3928   -2413.2741    1422.7888     2075.113    637.42398            0    4135.3258   -4797.3236   -63.963935      36.6857      36.6857      36.6857            0            0            0   0.75465454 
187000 0.75465454457802394472 307.81340251715198519 427.49996840817601651 1716.4444238133999079 4173.858907768840254 5890.3033315822303848 6198.1272818729103165
  187000    49373.104     307.8134    427.49997    4173.8589    1716.4444    5890.3033    6198.1273   -1457.4136    3831.3609   -2426.6654    1453.8103    2030.7736    658.52594            0    4143.1098   -4800.6126   -63.963935      36.6857      36.6857      36.6857            0            0            0   0.75465454 
188000 0.75465454457802394472 310.02618210665599463 310.77641518273702559 1702.1709065939999164 4203.8635460498699103 5906.0344526438802859 6129.8108990724804244
[...]
253000 0.75465454457802394472 309.89251225571598525 -1252.3749323926099351 1690.418248605459894 4202.0510223147703073 5892.4692709202299739 4990.6890898138299235
  253000    49373.104    309.89251   -1252.3749     4202.051    1690.4182    5892.4693    4990.6891   -1468.1855    3845.0822   -2423.0552    1420.9181    2093.3897    599.16558            0    4113.4734   -4799.9518   -63.963935      36.6857      36.6857      36.6857            0            0            0   0.75465454 
254000 0.75465454457802394472 307.72077717202500935 976.90529362250902068 1623.7364335090198892 4172.6029354210495512 5796.3393689300701226 6499.7659625330597919
254000 0.75465454457802394472 307.72077717202500935 976.90529362250902068 1623.7364335090198892 4172.6029354210495512 5796.3393689300701226 6499.7659625330597919
  254000    49373.104    307.72078    976.90529    4172.6029    1623.7364    5796.3394     6499.766   -1468.1395    3852.0853   -2415.3466    1375.1389    2086.1098    577.83427            0     4039.083   -4799.2924   -63.963935      36.6857      36.6857      36.6857            0            0            0   0.75465454 
255000 0.75465454457802394472 310.0792149306029728 -1145.8156495946500399 1675.5874870344600822 4204.5826554935401873 5880.1701425279998148 5055.1186205912099467
255000 0.75465454457802394472 310.0792149306029728 -1145.8156495946500399 1675.5874870344600822 4204.5826554935401873 5880.1701425279998148 5055.1186205912099467
  255000    49373.104    310.07921   -1145.8156    4204.5827    1675.5875    5880.1701    5055.1186   -1476.9442    3893.5868   -2385.2606    1434.3228    2038.5676    587.95758            0     4060.848   -4801.9031   -63.963935      36.6857      36.6857      36.6857            0            0            0   0.75465454 
256000 0.75465454457802394472 310.69934730025698855 -169.83075038358001052 1653.0102382979400772 4212.9914674358096818 5866.001705733739982 5743.7140418104800119
256000 0.75465454457802394472 310.69934730025698855 -169.83075038358001052 1653.0102382979400772 4212.9914674358096818 5866.001705733739982 5743.7140418104800119
  256000    49373.104    310.69935   -169.83075    4212.9915    1653.0102    5866.0017     5743.714   -1496.5674    3833.9611   -2462.8779    1442.8842    2069.2782     603.7258            0    4115.8882   -4800.2717   -63.963935      36.6857      36.6857      36.6857            0            0            0   0.75465454 
257000 0.75465454457802394472 314.21312118961998294 -219.26535507322600438 1681.7545023781399323 4260.6372045222096858 5942.3917069003400684 5784.5083554422099041
257000 0.75465454457802394472 314.21312118961998294 -219.26535507322600438 1681.7545023781399323 4260.6372045222096858 5942.3917069003400684 5784.5083554422099041
  257000    49373.104    314.21312   -219.26536    4260.6372    1681.7545    5942.3917    5784.5084   -1494.6326    3872.2213    -2424.909    1407.9986    2102.3019    596.36301            0    4106.6635   -4802.4977   -63.963935      36.6857      36.6857      36.6857            0            0            0   0.75465454 
258000 0.75465454457802394472 313.05663089769399221 -1957.7952359614100715 1661.0353994558699924 4244.9555374237897922 5905.9909368796497802 4496.268579149589641
258000 0.75465454457802394472 313.05663089769399221 -1957.7952359614100715 1661.0353994558699924 4244.9555374237897922 5905.9909368796497802 4496.268579149589641
  258000    49373.104    313.05663   -1957.7952    4244.9555    1661.0354    5905.9909    4496.2686   -1483.4692    3840.2218   -2447.4184    1411.3939    2076.5198    620.54013            0    4108.4538   -4804.1711   -63.963935      36.6857      36.6857      36.6857            0            0            0   0.75465454 
259000 0.75465454457802394472 302.52706639603599115 609.60128338515403357 1649.7423314037000637 4102.177749872050299 5751.9200812757499079 6190.8671900968602131
259000 0.75465454457802394472 302.52706639603599115 609.60128338515403357 1649.7423314037000637 4102.177749872050299 5751.9200812757499079 6190.8671900968602131
  259000    49373.104    302.52707    609.60128    4102.1777    1649.7423    5751.9201    6190.8672   -1489.2875     3847.536   -2443.7828    1416.1146    2068.1585    609.25206            0    4093.5251   -4802.0313   -63.963935      36.6857      36.6857      36.6857            0            0            0   0.75465454 
260000 0.75465454457802394472 309.74548008641102115 -1069.6524934241499523 1768.7525410521800495 4200.0573094856199532 5968.8098505378002301 5198.6000720666497728
260000 0.75465454457802394472 309.74548008641102115 -1069.6524934241499523 1768.7525410521800495 4200.0573094856199532 5968.8098505378002301 5198.6000720666497728
  260000    49373.104    309.74548   -1069.6525    4200.0573    1768.7525    5968.8099    5198.6001   -1483.4305    3863.2418   -2422.8944    1452.7217    2147.3807     591.5446            0    4191.6469   -4802.7057   -63.963935      36.6857      36.6857      36.6857            0            0            0   0.75465454 
261000 0.75465454457802394472 305.78808919350899487 -1079.9793498508199718 1692.2123802208800498 4146.3962567348598895 5838.608636955739712 5060.9629427553200003
261000 0.75465454457802394472 305.78808919350899487 -1079.9793498508199718 1692.2123802208800498 4146.3962567348598895 5838.608636955739712 5060.9629427553200003
  261000    49373.104    305.78809   -1079.9793    4146.3963    1692.2124    5838.6086    5060.9629    -1472.122    3859.9892   -2411.8415    1473.2279    2055.7778    575.04823            0    4104.0539   -4799.7087   -63.963935      36.6857      36.6857      36.6857            0            0            0   0.75465454 
262000 0.75465454457802394472 318.93266694832499297 -443.37618008160097816 1688.1266090707399599 4324.6328523546499127 6012.7594614253903273 5693.5037484350295927
262000 0.75465454457802394472 318.93266694832499297 -443.37618008160097816 1688.1266090707399599 4324.6328523546499127 6012.7594614253903273 5693.5037484350295927
  262000    49373.104    318.93267   -443.37618    4324.6329    1688.1266    6012.7595    5693.5037   -1454.5629    3811.6301   -2443.9441    1419.2387    2096.7949    616.03708            0    4132.0707   -4801.0113   -63.963935      36.6857      36.6857      36.6857            0            0            0   0.75465454 
263000 0.75465454457802394472 308.00994021209197626 -448.60439701213698527 1754.6937355850300264 4176.523900917390165 5931.2176365024197366 5608.197314137880312
263000 0.75465454457802394472 308.00994021209197626 -448.60439701213698527 1754.6937355850300264 4176.523900917390165 5931.2176365024197366 5608.197314137880312
  263000    49373.104    308.00994    -448.6044    4176.5239    1754.6937    5931.2176    5608.1973   -1486.0771    3835.1303   -2450.8361     1421.753    2176.0603    607.71654            0    4205.5298   -4799.8892   -63.963935      36.6857      36.6857      36.6857            0            0            0   0.75465454 
264000 0.75465454457802394472 311.80184022237301633 -42.776290953183902843 1629.6648419181399277 4227.9409461332697902 5857.6057880513999407 5826.8044597869302379
264000 0.75465454457802394472 311.80184022237301633 -42.776290953183902843 1629.6648419181399277 4227.9409461332697902 5857.6057880513999407 5826.8044597869302379
  264000    49373.104    311.80184   -42.776291    4227.9409    1629.6648    5857.6058    5826.8045   -1467.5973    3841.8965   -2425.2452    1405.2364    2058.0037    591.66993            0    4054.9101   -4799.5444   -63.963935      36.6857      36.6857      36.6857            0            0            0   0.75465454 
265000 0.75465454457802394472 305.1468279605219891 -968.2344313511399605 1707.1666728093300662 4137.7009436405596716 5844.8676164498901926 5147.684529920679779
265000 0.75465454457802394472 305.1468279605219891 -968.2344313511399605 1707.1666728093300662 4137.7009436405596716 5844.8676164498901926 5147.684529920679779
  265000    49373.104    305.14683   -968.23443    4137.7009    1707.1667    5844.8676    5147.6845   -1440.4123    3803.0731   -2437.8048    1440.3187    2093.8681    610.78468            0    4144.9714   -4800.4656   -63.963935      36.6857      36.6857      36.6857            0            0            0   0.75465454 
266000 0.75465454457802394472 314.03871253994498147 -771.68982704556901808 1626.4330168521798896 4258.2722746975596237 5884.7052915497297363 5329.0453418079696348
266000 0.75465454457802394472 314.03871253994498147 -771.68982704556901808 1626.4330168521798896 4258.2722746975596237 5884.7052915497297363 5329.0453418079696348
  266000    49373.104    314.03871   -771.68983    4258.2723     1626.433    5884.7053    5329.0453   -1490.8055     3837.155   -2454.1498    1462.7592    2038.6606    579.16304            0    4080.5828   -4800.4993   -63.963935      36.6857      36.6857      36.6857            0            0            0   0.75465454 
267000 0.75465454457802394472 311.74806601156200259 543.66493051624797772 1722.9447414119499626 4227.2117837024998153 5950.1565251144502326 6341.6257623384099134
267000 0.75465454457802394472 311.74806601156200259 543.66493051624797772 1722.9447414119499626 4227.2117837024998153 5950.1565251144502326 6341.6257623384099134
  267000    49373.104    311.74807    543.66493    4227.2118    1722.9447    5950.1565    6341.6258   -1492.3035    3870.3197    -2419.689     1432.731    2111.0192    598.88346            0    4142.6337   -4797.7051   -63.963935      36.6857      36.6857      36.6857            0            0            0   0.75465454 
268000 0.75465454457802394472 302.97913870806002024 -2037.1150724176300173 1689.3978154291598912 4108.3077170244396257 5797.7055324536004264 4330.8684444341297421
268000 0.75465454457802394472 302.97913870806002024 -2037.1150724176300173 1689.3978154291598912 4108.3077170244396257 5797.7055324536004264 4330.8684444341297421
  268000    49373.104    302.97914   -2037.1151    4108.3077    1689.3978    5797.7055    4330.8684   -1456.9409     3817.977   -2436.9421    1437.4126    2083.4869    605.44041            0    4126.3399   -4797.9782   -63.963935      36.6857      36.6857      36.6857            0            0            0   0.75465454 
269000 0.75465454457802394472 309.12452050054702113 -169.46233666894198677 1677.452503339650093 4191.6372807356401609 5869.0897840752995762 5747.0673986862202582
269000 0.75465454457802394472 309.12452050054702113 -169.46233666894198677 1677.452503339650093 4191.6372807356401609 5869.0897840752995762 5747.0673986862202582
  269000    49373.104    309.12452   -169.46234    4191.6373    1677.4525    5869.0898    5747.0674   -1482.4651    3856.1281   -2427.6106    1447.4035    2069.4963     588.1633            0    4105.0631   -4801.2736   -63.963935      36.6857      36.6857      36.6857            0            0            0   0.75465454 
270000 0.75465454457802394472 309.86181410419698068 -435.32650539718400751 1654.0934320058599951 4201.6347644386596585 5855.7281964445101039 5542.2687006308296986
270000 0.75465454457802394472 309.86181410419698068 -435.32650539718400751 1654.0934320058599951 4201.6347644386596585 5855.7281964445101039 5542.2687006308296986
  270000    49373.104    309.86181   -435.32651    4201.6348    1654.0934    5855.7282    5542.2687   -1459.4721    3850.4764   -2411.0521    1395.6954    2050.1841    619.26596            0    4065.1455   -4802.0564   -63.963935      36.6857      36.6857      36.6857            0            0            0   0.75465454 
271000 0.75465454457802394472 308.8641955515190034 -1302.3800540856500447 1711.4474218328400639 4188.1073512441698767 5899.5547730770103954 4961.7681002002500463
271000 0.75465454457802394472 308.8641955515190034 -1302.3800540856500447 1711.4474218328400639 4188.1073512441698767 5899.5547730770103954 4961.7681002002500463
  271000    49373.104     308.8642   -1302.3801    4188.1074    1711.4474    5899.5548    4961.7681   -1507.3394    3878.7002   -2427.6192    1451.8174    2083.1064    604.14281            0    4139.0666     -4798.98   -63.963935      36.6857      36.6857      36.6857            0            0            0   0.75465454 
272000 0.75465454457802394472 313.13196085165202476 615.89838490414103944 1711.3058770539100806 4245.9769893709099051 5957.2828664248199857 6400.7642414639403796
272000 0.75465454457802394472 313.13196085165202476 615.89838490414103944 1711.3058770539100806 4245.9769893709099051 5957.2828664248199857 6400.7642414639403796
  272000    49373.104    313.13196    615.89838     4245.977    1711.3059    5957.2829    6400.7642   -1462.7645     3876.038   -2387.7881    1410.0791    2125.9584    563.05648            0     4099.094   -4801.0616   -63.963935      36.6857      36.6857      36.6857            0            0            0   0.75465454 
273000 0.75465454457802394472 313.49184601637301739 730.79241549140294865 1691.5948506851900675 4250.8569260086896975 5942.4517766938697605 6468.6632967009099957
273000 0.75465454457802394472 313.49184601637301739 730.79241549140294865 1691.5948506851900675 4250.8569260086896975 5942.4517766938697605 6468.6632967009099957
  273000    49373.104    313.49185    730.79242    4250.8569    1691.5949    5942.4518    6468.6633   -1437.3594    3840.0139   -2394.6537    1414.0393    2068.2076    604.00159            0    4086.2485   -4797.3082   -63.963935      36.6857      36.6857      36.6857            0            0            0   0.75465454 
274000 0.75465454457802394472 308.70075880642798438 -1093.698753505500008 1622.229152543120108 4185.8911972080795749 5808.1203497511996829 5020.5959155725304299
274000 0.75465454457802394472 308.70075880642798438 -1093.698753505500008 1622.229152543120108 4185.8911972080795749 5808.1203497511996829 5020.5959155725304299
  274000    49373.104    308.70076   -1093.6988    4185.8912    1622.2292    5808.1203    5020.5959   -1481.2921    3819.5041   -2459.9889    1447.5038    2040.6383    594.07593            0     4082.218   -4798.2009   -63.963935      36.6857      36.6857      36.6857            0            0            0   0.75465454 
275000 0.75465454457802394472 305.75391805614697205 -688.24574793796898575 1755.8654017062299317 4145.9329061955404541 5901.7983079017703858 5406.2227744347301268
275000 0.75465454457802394472 305.75391805614697205 -688.24574793796898575 1755.8654017062299317 4145.9329061955404541 5901.7983079017703858 5406.2227744347301268
  275000    49373.104    305.75392   -688.24575    4145.9329    1755.8654    5901.7983    5406.2228   -1480.8663    3871.6848   -2407.1629    1440.3251     2126.356    596.34719            0    4163.0283   -4797.9814   -63.963935      36.6857      36.6857      36.6857            0            0            0   0.75465454 
276000 0.75465454457802394472 317.23718062335001378 -132.78723882438200121 1607.3577367617099299 4301.6425580964196342 5909.0002948581295641 5813.3860365569798887
276000 0.75465454457802394472 317.23718062335001378 -132.78723882438200121 1607.3577367617099299 4301.6425580964196342 5909.0002948581295641 5813.3860365569798887
  276000    49373.104    317.23718   -132.78724    4301.6426    1607.3577    5909.0003     5813.386   -1475.6412    3811.5648   -2466.1816    1424.5538    2063.5451    585.44041            0    4073.5394   -4802.1052   -63.963935      36.6857      36.6857      36.6857            0            0            0   0.75465454 
277000 0.75465454457802394472 311.73646074536497963 631.83468016580104631 1713.3207125069500307 4227.0544197173803695 5940.3751322243297182 6395.3315335159795723
277000 0.75465454457802394472 311.73646074536497963 631.83468016580104631 1713.3207125069500307 4227.0544197173803695 5940.3751322243297182 6395.3315335159795723
  277000    49373.104    311.73646    631.83468    4227.0544    1713.3207    5940.3751    6395.3315   -1470.7785    3860.7751   -2409.0976    1408.1293    2127.1791    587.11002            0    4122.4183   -4799.0942   -63.963935      36.6857      36.6857      36.6857            0            0            0   0.75465454 
278000 0.75465454457802394472 309.36626526112598867 535.8550886963770381 1651.0329480740499548 4194.915268354429827 5845.9482164284800092 6231.7939295874202799
278000 0.75465454457802394472 309.36626526112598867 535.8550886963770381 1651.0329480740499548 4194.915268354429827 5845.9482164284800092 6231.7939295874202799
  278000    49373.104    309.36627    535.85509    4194.9153    1651.0329    5845.9482    6231.7939   -1505.5322    3856.8882   -2445.3181    1403.3247    2084.9723    608.05397            0     4096.351   -4796.6741   -63.963935      36.6857      36.6857      36.6857            0            0            0   0.75465454 
279000 0.75465454457802394472 302.74487570101399569 -1688.9340409607400488 1616.8345795087600436 4105.1311797758298781 5721.9657592845896943 4505.8385389603799922
279000 0.75465454457802394472 302.74487570101399569 -1688.9340409607400488 1616.8345795087600436 4105.1311797758298781 5721.9657592845896943 4505.8385389603799922
  279000    49373.104    302.74488    -1688.934    4105.1312    1616.8346    5721.9658    4505.8385   -1493.2063    3830.7282   -2463.6539    1402.5492    2080.4916    597.44764            0    4080.4884   -4801.1757   -63.963935      36.6857      36.6857      36.6857            0            0            0   0.75465454 
280000 0.75465454457802394472 310.61616081356498853 -852.69925075999299224 1665.0799878185100624 4211.8634832231300607 5876.9434710416398957 5262.9521934370895906
280000 0.75465454457802394472 310.61616081356498853 -852.69925075999299224 1665.0799878185100624 4211.8634832231300607 5876.9434710416398957 5262.9521934370895906
  280000    49373.104    310.61616   -852.69925    4211.8635      1665.08    5876.9435    5262.9522   -1472.7401    3835.3023   -2437.3768     1431.842     2086.261    584.35374            0    4102.4568   -4799.9389   -63.963935      36.6857      36.6857      36.6857            0            0            0   0.75465454 
  280395    49373.104    303.44485   -541.69505    4114.6227    1645.4392    5760.0619    5370.0111   -1510.0204    3834.4604    -2478.441    1431.4783    2097.3066    595.09541            0    4123.8803   -4802.8811   -63.963935      36.6857      36.6857      36.6857            0            0            0   0.75465454 
Loop time of 95.3709 on 48 procs for 30000 steps with 4550 atoms

Performance: 27.178 ns/day, 0.883 hours/ns, 314.562 timesteps/s
59.1% CPU use with 48 MPI tasks x 1 OpenMP threads

MPI task timing breakdown:
Section |  min time  |  avg time  |  max time  |%varavg| %total
---------------------------------------------------------------
Pair    | 24.858     | 30         | 34.324     |  40.3 | 31.46
Bond    | 1.3718     | 1.9816     | 2.314      |  14.3 |  2.08
Kspace  | 12.178     | 17.959     | 23.509     |  57.9 | 18.83
Neigh   | 6.6253     | 7.1669     | 7.683      |  12.8 |  7.51
Comm    | 24.696     | 28.593     | 35.232     |  43.1 | 29.98
Output  | 0.16339    | 0.16362    | 0.16406    |   0.0 |  0.17
Modify  | 2.032      | 6.138      | 8.4598     |  57.2 |  6.44
Other   |            | 3.369      |            |       |  3.53

Nlocal:    94.7917 ave 116 max 71 min
Histogram: 1 3 5 6 7 7 9 2 4 4
Nghost:    4270.5 ave 4309 max 4239 min
Histogram: 4 5 5 7 8 6 6 1 1 5
Neighs:    40185.1 ave 49642 max 27938 min
Histogram: 1 2 5 7 4 7 6 6 5 5

Total # of neighbors = 1928886
Ave neighs/atom = 423.931
Ave special neighs/atom = 10.0879
Neighbor list builds = 3365
Dangerous builds = 0

write_data      restart.${NAME}.final.data
write_data      restart.acetone_octanol_75p.final.data
Ewald initialization ...
  using 12-bit tables for long-range coulomb (src/kspace.cpp:332)
  G vector (1/distance) = 0.168218
  estimated absolute RMS force accuracy = 0.0452731
  estimated relative force accuracy = 0.000136339
  KSpace vectors: actual max1d max3d = 128 4 364
                  kxmax kymax kzmax  = 4 4 4
Total wall time: 0:14:22
