
variable        infile index acetone_octanol_25p.data   # The name of the (edited) data file

#>>>>>> Simulation settings <<<<<<<

units		 real		#angstroms = length -
atom_style	 full		#How the atoms are defined in the input data file
boundary        p p p           #periodic box in x, y and z
pair_style	 lj/cut/coul/long 12.0    #'lj/cut/coul/long
pair_modify     tail yes            #Tail corrections
pair_modify     mix arithmetic      #Lorentz-Berthelot pair interactions between dissimilar atom

special_bonds   lj/coul 0.0 0.0 0.5
kspace_style    ewald 0.0001
bond_style      harmonic
angle_style     harmonic
dihedral_style  opls


# inputs settings
variable   simulationTemp  index 310     #Simulation temperature
variable   simulationPress equal 0.987	 #Simulation pressure

# Output files frequencies
variable        dumpfreq   index 1000          #Output frequency of dump information to dump
variable        thermofreq index 1000          #Output frequency of property information to log
variable        printfreq  index 1000          #Output frequency of information to be printed
variable        restartfreq index 1000000      #Output frequency of restart files


# Simulation run times (equilibration and production)
variable        NVT_equib  index 100000       # Equilibration run length (in timesteps)
variable        NVT_prod   index 30000       # Simulation run length  (in timesteps)


# Output
variable    step        equal step
variable    density     equal density
variable    temp        equal temp
variable    press       equal press
variable    ke          equal ke
variable    pe          equal pe
variable    etotal      equal etotal
variable    enthalpy    equal enthalpy


# >>>>>>>>>>> Reading data, Neighbor list settings, energy minimization, assigning initial velocities & specifying thermodynamic property output style to log files <<<<<<<<<

read_data	${infile}
read_data	acetone_octanol_25p.data
  orthogonal box = (0 0 0) to (40 40 40)
  3 by 4 by 4 MPI processor grid
  reading atoms ...
  2850 atoms
  scanning bonds ...
  1 = max bonds/atom
  scanning angles ...
  6 = max angles/atom
  scanning dihedrals ...
  12 = max dihedrals/atom
  reading bonds ...
  2650 bonds
  reading angles ...
  4700 angles
  reading dihedrals ...
  5100 dihedrals
  4 = max # of 1-2 neighbors
  6 = max # of 1-3 neighbors
  12 = max # of 1-4 neighbors
  16 = max # of special neighbors
  special bonds CPU = 0.02678 secs
  read_data CPU = 0.0627676 secs
neighbor        1.0 bin
neigh_modify    delay 0 every 1 check yes page 1000000 one 20000
timestep        1.0

minimize        1e-4 1e-6 10000 100000        #Energy minimize before creating velocities
Ewald initialization ...
  using 12-bit tables for long-range coulomb (src/kspace.cpp:332)
  G vector (1/distance) = 0.165596
  estimated absolute RMS force accuracy = 0.0336911
  estimated relative force accuracy = 0.00010146
  KSpace vectors: actual max1d max3d = 257 5 665
                  kxmax kymax kzmax  = 5 5 5
Neighbor list info ...
  update every 1 steps, delay 0 steps, check yes
  max neighbors/atom: 20000, page size: 1000000
  master list distance cutoff = 13
  ghost atom cutoff = 13
  binsize = 6.5, bins = 7 7 7
  1 neighbor lists, perpetual/occasional/extra = 1 0 0
  (1) pair lj/cut/coul/long, perpetual
      attributes: half, newton on
      pair build: half/bin/newton
      stencil: half/bin/3d/newton
      bin: standard
Per MPI rank memory allocation (min/avg/max) = 25.7 | 25.82 | 26.22 Mbytes
Step Temp E_pair E_mol TotEng Press 
       0            0   -613.98348    823.06275    209.07927    512.33852 
     486            0   -3097.8044    256.70092   -2841.1035   -179.41004 
Loop time of 3.5913 on 48 procs for 486 steps with 2850 atoms

41.1% CPU use with 48 MPI tasks x 1 OpenMP threads

Minimization stats:
  Stopping criterion = energy tolerance
  Energy initial, next-to-last, final = 
         209.079270187     -2840.82361837     -2841.10352765
  Force two-norm initial, final = 2006.12 30.942
  Force max component initial, final = 631.709 4.08232
  Final line search alpha, max atom move = 0.00357232 0.0145834
  Iterations, force evaluations = 486 964

MPI task timing breakdown:
Section |  min time  |  avg time  |  max time  |%varavg| %total
---------------------------------------------------------------
Pair    | 0.0068515  | 0.4873     | 1.5702     |  52.7 | 13.57
Bond    | 0.0004908  | 0.035472   | 0.085568   |  10.6 |  0.99
Kspace  | 0.52719    | 1.5996     | 2.0398     |  27.6 | 44.54
Neigh   | 0.057996   | 0.062476   | 0.065557   |   1.1 |  1.74
Comm    | 0.64567    | 0.78471    | 0.95326    |   9.4 | 21.85
Output  | 0          | 0          | 0          |   0.0 |  0.00
Modify  | 0          | 0          | 0          |   0.0 |  0.00
Other   |            | 0.6217     |            |       | 17.31

Nlocal:    59.375 ave 147 max 1 min
Histogram: 4 6 8 6 6 10 5 0 2 1
Nghost:    2200.75 ave 2360 max 2070 min
Histogram: 5 5 7 4 5 11 1 3 2 5
Neighs:    16257.3 ave 61007 max 115 min
Histogram: 13 11 7 6 6 2 0 1 0 2

Total # of neighbors = 780352
Ave neighs/atom = 273.808
Ave special neighs/atom = 8.73684
Neighbor list builds = 36
Dangerous builds = 0
#velocity	all create ${simulationTemp} 886874 mom yes rot yes dist gaussian

velocity        all create  ${simulationTemp} 317879265 units box
velocity        all create  310 317879265 units box
velocity        all zero linear units box

# The 'velocity' command line above assigns initial velocities to the atoms in our data file, see the LAMMPS 'velocity' command
# The number '886874' is the seed number which helps LAMMPS to consistently assign the same randomized velocities for the same simulation with the same seed number
# Changing that seed number for your simulation of a given system is one easy way to run an 'independent' simulation of the same system as taught in class
# You will need to do this for your homework

thermo_style    custom step vol temp press ke pe etotal enthalpy evdwl ecoul epair ebond eangle edihed eimp emol elong etail lx ly lz xy xz yz density
thermo          ${thermofreq}
thermo          1000

fix npt_density all npt temp ${simulationTemp} ${simulationTemp} 100 iso ${simulationPress} ${simulationPress} 1000
fix npt_density all npt temp 310 ${simulationTemp} 100 iso ${simulationPress} ${simulationPress} 1000
fix npt_density all npt temp 310 310 100 iso ${simulationPress} ${simulationPress} 1000
fix npt_density all npt temp 310 310 100 iso 0.987 ${simulationPress} 1000
fix npt_density all npt temp 310 310 100 iso 0.987 0.987 1000

run 50000
Ewald initialization ...
  using 12-bit tables for long-range coulomb (src/kspace.cpp:332)
  G vector (1/distance) = 0.165596
  estimated absolute RMS force accuracy = 0.0336911
  estimated relative force accuracy = 0.00010146
  KSpace vectors: actual max1d max3d = 257 5 665
                  kxmax kymax kzmax  = 5 5 5
Per MPI rank memory allocation (min/avg/max) = 24.58 | 24.73 | 25.1 Mbytes
Step Volume Temp Press KinEng PotEng TotEng Enthalpy E_vdwl E_coul E_pair E_bond E_angle E_dihed E_impro E_mol E_long E_tail Lx Ly Lz Xy Xz Yz Density 
     486        64000          310    1700.9513    2632.6216   -2841.1035    -208.4819    1379.1425   -1143.2114    1796.8679   -3097.8044    11.164253    78.890934    166.64573            0    256.70092    -3751.461   -21.515171           40           40           40            0            0            0   0.39498392 
    1000    66307.197    267.26758      196.118    2269.7239   -540.44136    1729.2825     1918.933   -846.02596    1918.9356   -2677.7865    763.73394    1063.1173    310.49384            0    2137.3451   -3750.6962   -20.766538    40.475003    40.475003    40.475003            0            0            0   0.38124023 
    2000    60961.004    324.82259    -933.0413    2758.4999   -206.90201    2551.5979    1722.0741   -771.65722    1967.1514   -2554.0882    810.82042    1200.0042    336.36152            0    2347.1861   -3749.5823   -22.587734    39.356582    39.356582    39.356582            0            0            0   0.41467445 
    3000    55854.844    312.15888    156.83217    2650.9556   -153.37182    2497.5838     2625.337    -770.4799    1939.3816   -2582.5562    834.71184     1256.029    338.44355            0    2429.1844   -3751.4579   -24.652668    38.225539    38.225539    38.225539            0            0            0   0.45258333 
    4000    52116.941    300.42931    172.34439    2551.3442   -259.31938    2292.0248     2423.019   -799.14768    1931.5247   -2617.4557     807.4845    1233.6261     317.0257            0    2358.1363   -3749.8327   -26.420794     37.35307     37.35307     37.35307            0            0            0   0.48504326 
    5000     49550.71    307.80244   -588.05494    2613.9592   -282.01098    2331.9482    1906.9925     -827.342    1942.7844   -2636.1669    791.08804     1224.133    338.93484            0    2354.1559   -3751.6093   -27.789126    36.729636    36.729636    36.729636            0            0            0   0.51016366 
    6000    46191.044    315.73398    967.12958    2681.3164   -305.50732    2375.8091     3027.315   -877.29986     1942.226   -2683.8491    821.65788     1228.639    328.04492            0    2378.3418   -3748.7752   -29.810345    35.880013    35.880013    35.880013            0            0            0   0.54726997 
    7000    43743.512    309.19341   -555.84951    2625.7718   -315.86008    2309.9117    1955.3052   -911.26548    1955.2496   -2706.7282    823.11589     1236.183    331.56919            0    2390.8681   -3750.7123    -31.47829    35.234752    35.234752    35.234752            0            0            0   0.57789076 
    8000    42777.618    309.25066   -765.59071     2626.258   -442.87733    2183.3807    1705.7534   -926.28421    1914.9905   -2764.1752    829.86211    1168.3053    323.13054            0    2321.2979   -3752.8816   -32.189051    34.973481    34.973481    34.973481            0            0            0    0.5909392 
    9000    41211.753    317.53607    -355.4393    2696.6204   -489.92808    2206.6923    1993.0623    -951.5738    1925.2691    -2779.224    813.31224    1166.9052    309.07849            0    2289.2959   -3752.9193   -33.412093    34.541434    34.541434    34.541434            0            0            0   0.61339228 
   10000    39333.403    315.80806    495.97344    2681.9456   -456.91202    2225.0336    2509.5424   -980.06709    1926.4642   -2805.3278    849.75908    1191.4313    307.22534            0    2348.4158   -3751.7249   -35.007674    34.008476    34.008476    34.008476            0            0            0   0.64268457 
   11000    38400.985    307.57951    424.49755     2612.066   -458.27946    2153.7866    2391.5217    -989.5978     1926.454   -2815.3332    832.92291    1205.0414     319.0895            0    2357.0538   -3752.1895   -35.857698    33.737595    33.737595    33.737595            0            0            0   0.65828965 
   12000    37943.521     303.0607    245.44602    2573.6908   -516.47182     2057.219    2193.0408   -1003.8661    1948.6656   -2810.5436     808.0677    1180.3676    305.63653            0    2294.0718   -3755.3431   -36.290015     33.60309     33.60309     33.60309            0            0            0   0.66622629 
   13000    36155.012    314.79439    762.59282    2673.3372   -531.05651    2142.2807    2544.3835   -1003.3735    1930.8217   -2827.0206    774.38897    1221.5615    300.01362            0    2295.9641   -3754.4688   -38.085201    33.066597    33.066597    33.066597            0            0            0   0.69918303 
   14000    35113.457    310.66152   -164.82095    2638.2395   -525.68008    2112.5594    2028.1556   -1038.7803    1914.9277   -2878.0807    820.60697    1219.1639    312.62976            0    2352.4006   -3754.2282   -39.214906     32.74597     32.74597     32.74597            0            0            0   0.71992259 
   15000    34258.477    310.06971    513.70165    2633.2136   -572.42207    2060.7916    2317.4496   -1047.4055    1889.1473   -2914.0891    803.31023    1225.6415    312.71535            0    2341.6671   -3755.8309   -40.193583    32.478005    32.478005    32.478005            0            0            0   0.73788953 
   16000     33085.42    308.24376    848.04123    2617.7071   -672.23553    1945.4716    2354.6658   -1106.7969    1914.2727   -2946.2173    787.91983    1184.8694    301.19258            0    2273.9818   -3753.6931   -41.618663    32.102995    32.102995    32.102995            0            0            0   0.76405169 
   17000     32635.75    314.55297    599.80019     2671.287   -591.35753    2079.9294    2365.4097   -1124.9712    1903.8886   -2974.8983    850.44961    1240.3555    292.73573            0    2383.5408   -3753.8157   -42.192104    31.956892    31.956892    31.956892            0            0            0   0.77457915 
   18000    32885.498    305.69022   -592.36793    2596.0215   -607.38359    1988.6379    1704.5375   -1109.1271    1914.3939   -2947.8386    834.21748    1216.5022    289.73529            0     2340.455   -3753.1053   -41.871677    32.038202    32.038202    32.038202            0            0            0   0.76869663 
   19000    32880.244    303.34329    445.57788    2576.0907   -639.23001    1936.8607    2150.5262   -1102.3432    1884.5059   -2974.5846    813.70732    1231.2453    290.40199            0    2335.3546   -3756.7474   -41.878368    32.036496    32.036496    32.036496            0            0            0   0.76881946 
   20000    32781.743    312.76222    1143.9193    2656.0793   -570.29723    2085.7821    2632.6763   -1121.2806    1921.8148   -2954.2284    849.58157    1214.9715    319.37817            0    2383.9312   -3754.7626   -42.004201    32.004473    32.004473    32.004473            0            0            0   0.77112956 
   21000    32057.184    309.54637    544.83844    2628.7693   -686.26332     1942.506    2197.2295   -1119.1168    1881.5324   -2991.4187    835.42853    1170.3053    299.42155            0    2305.1553   -3753.8343   -42.953583    31.766921    31.766921    31.766921            0            0            0   0.78855869 
   22000    32724.244    304.29163    1945.0382    2584.1443    -620.7848    1963.3595    2891.6281    -1092.544    1873.7651   -2975.5258    846.36185    1209.2113    299.16782            0     2354.741   -3756.7469   -42.078007     31.98575     31.98575     31.98575            0            0            0   0.77248451 
   23000    32471.715    308.36218   -52.422837    2618.7127   -692.39052    1926.3222    1901.4965    -1122.596    1873.5002   -3004.6275    815.33439      1209.31    287.59263            0     2312.237   -3755.5318   -42.405242    31.903261    31.903261    31.903261            0            0            0   0.77849203 
   24000    33567.293    319.18079   -1023.8006    2710.5879   -558.85756    2151.7304    1650.5344   -1069.9429     1887.025   -2938.8511    861.47792    1232.1527    286.36292            0    2379.9935   -3755.9332   -41.021208    32.258099    32.258099    32.258099            0            0            0    0.7530834 
   25000    32870.491    303.00098   -36.676795    2573.1837   -574.18167     1999.002    1981.4198   -1110.8819    1891.0445   -2975.8767    833.41843    1264.4921    303.78444            0     2401.695   -3756.0392   -41.890793    32.033328    32.033328    32.033328            0            0            0   0.76904757 
   26000    32642.236    307.55789    399.56194    2611.8824   -608.33647    2003.5459    2193.7588   -1112.8613    1876.0224   -2992.6403    832.33866    1246.5895    305.37564            0    2384.3038   -3755.8014   -42.183719    31.959009    31.959009    31.959009            0            0            0   0.77442522 
   27000    32169.523    310.57865    400.75464    2637.5357   -612.25596    2025.2798    2213.2976   -1140.1097    1897.7679   -2996.6991    836.38284    1244.5006    303.55969            0    2384.4432   -3754.3573   -42.803586    31.803985    31.803985    31.803985            0            0            0   0.78580498 
   28000    32163.375    308.83311   -644.86299     2622.712   -633.62614    1989.0858    1686.6001   -1153.5207    1916.4837   -2991.0992    854.51704    1209.2283    293.72775            0    2357.4731   -3754.0622   -42.811768    31.801959    31.801959    31.801959            0            0            0   0.78595518 
   29000    31809.565    316.09354   -517.41773      2684.37   -639.29337    2045.0766    1805.0414   -1158.1417    1891.9591   -3018.8023    857.86111    1223.6303    298.01757            0     2379.509   -3752.6198   -43.287953    31.684917    31.684917    31.684917            0            0            0   0.79469717 
   30000    31847.704    304.79921   -970.15653    2588.4548   -569.77996    2018.6749    1568.0701   -1136.1201    1912.0008   -2978.5628    873.53812      1243.33    291.91474            0    2408.7828   -3754.4435   -43.236113    31.697575    31.697575    31.697575            0            0            0   0.79374549 
   31000    32158.727    311.30146   -22.788859    2643.6741   -657.69498    1985.9791    1975.2911   -1136.7704    1865.1399   -3025.9314    838.88009     1227.172    302.18427            0    2368.2364   -3754.3009   -42.817955    31.800427    31.800427    31.800427            0            0            0   0.78606878 
   32000    31840.983     315.1435   -324.74378    2676.3019   -656.94618    2019.3558    1868.5551   -1173.4343    1911.0207   -3019.6337    869.88935    1206.6595    286.13867            0    2362.6876   -3757.2202   -43.245239    31.695345    31.695345    31.695345            0            0            0   0.79391302 
   33000    32118.718    307.91225    902.86921    2614.8917   -734.36696    1880.5248    2303.4455   -1145.2309    1861.6477    -3040.003    841.34776    1179.5224    284.76589            0    2305.6361   -3756.4198   -42.871292    31.787234    31.787234    31.787234            0            0            0   0.78704795 
   34000    31921.623    313.26307    1377.5347    2660.3327   -628.71317    2031.6195    2672.9227   -1131.1652    1884.3962   -3003.2438    858.08574    1230.7858    285.65919            0    2374.5307   -3756.4749   -43.135994     31.72208     31.72208     31.72208            0            0            0   0.79190746 
   35000    32015.822    305.54929    107.58763    2594.8247   -677.57031    1917.2544     1967.489   -1163.4325    1864.0009   -3053.6172    885.67986    1190.4966    299.87047            0    2376.0469   -3754.1855   -43.009076    31.753253    31.753253    31.753253            0            0            0   0.78957744 
   36000    31501.921    306.94771    2245.1962    2606.7006   -685.72172    1920.9789    2952.4741   -1184.3301    1867.4262   -3071.5732    842.72747    1232.2755    310.84855            0    2385.8515   -3754.6693   -43.710697     31.58244     31.58244     31.58244            0            0            0   0.80245809 
   37000    31418.879    309.84638   -566.34258     2631.317   -732.60244    1898.7146    1639.2095   -1197.6233    1867.4497   -3084.2258    832.54806    1221.2749    297.80032            0    2351.6233   -3754.0522   -43.826228    31.554664    31.554664    31.554664            0            0            0   0.80457903 
   38000    31366.868    307.14309   -540.69034    2608.3598   -676.28781     1932.072    1684.7313   -1179.7391    1874.3745   -3061.2729    882.84323    1205.5195    296.62227            0     2384.985   -3755.9083   -43.898898    31.537243    31.537243    31.537243            0            0            0   0.80591314 
   39000    32175.073    307.02888    817.17889    2607.3899   -557.55326    2049.8366      2433.29   -1134.3425    1870.2095   -3019.0489    935.24652    1233.1069    293.14226            0    2461.4957    -3754.916   -42.796203    31.805814    31.805814    31.805814            0            0            0   0.78566944 
   40000    31798.438    306.78728   -2786.5963    2605.3381    -633.2492    1972.0889    679.81158   -1134.5953    1871.3436   -3019.5919    850.21719    1232.5006    303.62492            0    2386.3427   -3756.3402     -43.3031    31.681222    31.681222    31.681222            0            0            0   0.79497526 
   41000    31444.162    318.51055    2387.2381     2704.896   -656.23207    2048.6639    3143.4056   -1173.4818    1898.0178   -3032.1698    850.67972    1253.1805    272.07754            0    2375.9378   -3756.7058   -43.790989    31.563126    31.563126    31.563126            0            0            0   0.80393211 
   42000     31992.61    311.92064    -20.27305    2648.9323   -660.24409    1988.6882    1979.2292   -1170.5682    1900.7016   -3025.6309    870.50062    1213.3501    281.53607            0    2365.3868   -3755.7644   -43.040281    31.745577    31.745577    31.745577            0            0            0   0.79015032 
   43000    32304.885    308.34234   -763.00881    2618.5443   -553.03072    2065.5135    1706.0344    -1145.354    1894.7667   -3004.4665    942.06184    1230.0645     279.3094            0    2451.4357   -3753.8791   -42.624232    31.848531    31.848531    31.848531            0            0            0   0.78251233 
   44000     32728.57    316.70612   -339.61636    2689.5722    -662.4471    2027.1251    1865.0219   -1096.8167     1861.825    -2989.707    854.56348    1209.0941    263.60237            0    2327.2599   -3754.7154   -42.072444     31.98716     31.98716     31.98716            0            0            0   0.77238239 
   45000    31941.811     303.3348    982.62227    2576.0186   -753.08955     1822.929    2280.6723   -1149.4588    1853.3261   -3052.2157    831.64581    1172.1115    295.36877            0    2299.1261    -3756.083    -43.10873    31.728766    31.728766    31.728766            0            0            0   0.79140694 
   46000    32038.891    306.04517    1085.4676    2599.0359   -667.81935    1931.2166    2438.4061   -1148.4897    1896.0578   -3008.4159    845.90901    1211.2821    283.40544            0    2340.5965   -3755.9839   -42.978109    31.760877    31.760877    31.760877            0            0            0   0.78900894 
   47000     32182.84    306.54085   -1576.7285    2603.2454    -624.7331    1978.5123    1238.4689   -1134.1205    1895.8886   -2992.7181    879.51642    1195.7748    292.69384            0     2367.985   -3754.4862   -42.785874    31.808373    31.808373    31.808373            0            0            0   0.78547982 
   48000    31751.036    321.73993    959.50506     2732.321   -605.66656    2126.6544    2570.9592   -1164.2827    1902.0229   -3018.0263    882.18347    1251.0923    279.08405            0    2412.3598   -3755.7665   -43.367749    31.665472    31.665472    31.665472            0            0            0    0.7961621 
   49000    31989.309    310.46938    680.44404    2636.6078   -784.27823    1852.3295     2169.778   -1165.1205    1879.0579   -3043.1525    828.47306    1148.3814    282.01981            0    2258.8742   -3757.0899   -43.044723    31.744485    31.744485    31.744485            0            0            0   0.79023186 
   50000    32122.853    312.37357    87.544767    2652.7787   -668.60406    1984.1747    2025.1876   -1148.0066    1855.0748   -3050.2459    877.82279    1240.8108    263.00832            0    2381.6419   -3757.3141   -42.865774    31.788598    31.788598    31.788598            0            0            0   0.78694664 
   50486    32249.776    307.03707    1454.3807    2607.4594   -633.79524    1973.6642    2657.7029   -1119.4868    1854.2099   -3022.0634    866.31024    1244.3319    277.62604            0    2388.2682   -3756.7865    -42.69707     31.83041     31.83041     31.83041            0            0            0   0.78384952 
Loop time of 136.602 on 48 procs for 50000 steps with 2850 atoms

Performance: 31.625 ns/day, 0.759 hours/ns, 366.028 timesteps/s
48.7% CPU use with 48 MPI tasks x 1 OpenMP threads

MPI task timing breakdown:
Section |  min time  |  avg time  |  max time  |%varavg| %total
---------------------------------------------------------------
Pair    | 21.265     | 28.089     | 34.193     |  57.2 | 20.56
Bond    | 1.4151     | 1.9426     | 2.7285     |  22.2 |  1.42
Kspace  | 20.585     | 28.314     | 36.127     |  69.0 | 20.73
Neigh   | 7.0333     | 7.7902     | 8.3867     |  16.5 |  5.70
Comm    | 37.193     | 42.713     | 50.225     |  45.0 | 31.27
Output  | 0.057788   | 0.058623   | 0.067655   |   0.6 |  0.04
Modify  | 17.922     | 21.936     | 25.095     |  38.8 | 16.06
Other   |            | 5.759      |            |       |  4.22

Nlocal:    59.375 ave 73 max 45 min
Histogram: 4 1 4 3 9 10 8 2 6 1
Nghost:    3669.65 ave 3702 max 3629 min
Histogram: 3 3 3 5 5 6 5 6 8 4
Neighs:    24100.5 ave 28669 max 17860 min
Histogram: 3 1 3 2 7 9 7 8 3 5

Total # of neighbors = 1156826
Ave neighs/atom = 405.904
Ave special neighs/atom = 8.73684
Neighbor list builds = 5409
Dangerous builds = 0

unfix npt_density

fix reshape_box all deform 1 x final 0.0 36.6857 y final 0.0 36.6857 z final 0.0 36.6857 units box

run 100000
Ewald initialization ...
  using 12-bit tables for long-range coulomb (src/kspace.cpp:332)
  G vector (1/distance) = 0.172632
  estimated absolute RMS force accuracy = 0.035434
  estimated relative force accuracy = 0.000106708
  KSpace vectors: actual max1d max3d = 128 4 364
                  kxmax kymax kzmax  = 4 4 4
Per MPI rank memory allocation (min/avg/max) = 23.12 | 23.41 | 23.6 Mbytes
Step Volume Temp Press KinEng PotEng TotEng Enthalpy E_vdwl E_coul E_pair E_bond E_angle E_dihed E_impro E_mol E_long E_tail Lx Ly Lz Xy Xz Yz Density 
   50486    32249.776    307.03707     1457.072    2607.4594   -633.64991    1973.8095     2659.114   -1119.4868    2013.0903   -3021.9181    866.31024    1244.3319    277.62604            0    2388.2682   -3915.5217    -42.69707     31.83041     31.83041     31.83041            0            0            0   0.78384952 
   51000     32325.69    307.03707   -111.01202    2607.4594   -630.33319    1977.1262    1924.7911   -1122.4754    2014.5357   -3023.4441    871.15298    1244.3319    277.62604            0    2393.1109   -3915.5044   -42.596799    31.855366    31.855366    31.855366            0            0            0   0.78200871 
   52000    32473.725    307.03707   -3148.7587    2607.4594   -618.72747     1988.732    497.49253   -1128.0531    2017.5408   -3025.9831    885.29769    1244.3319    277.62604            0    2407.2557   -3915.4708   -42.402618    31.903919    31.903919    31.903919            0            0            0   0.77844384 
   53000    32622.211    307.03707   -6166.9675    2607.4594   -601.04127    2006.4182   -927.58746   -1133.2884    2020.0648   -3028.6606    905.66141    1244.3319    277.62604            0    2427.6194   -3915.4371   -42.209614    31.952472    31.952472    31.952472            0            0            0   0.77490062 
   54000    32771.149    307.03707    -9161.249    2607.4594   -576.64449    2030.8149   -2347.6537    -1138.184    2022.7408   -3030.8466    932.24414    1244.3319    277.62604            0    2454.2021   -3915.4033   -42.017781    32.001025    32.001025    32.001025            0            0            0   0.77137886 
   55000    32920.539    307.03707   -12131.393    2607.4594   -545.47551    2061.9839   -3762.4471   -1142.7459    2025.6361   -3032.4794    965.04589    1244.3319    277.62604            0    2487.0038   -3915.3696   -41.827108    32.049578    32.049578    32.049578            0            0            0   0.76787841 
   56000    33070.383    307.03707   -15078.498    2607.4594   -507.66241     2099.797   -5172.5265   -1146.9968    2028.6455    -3033.687    1004.0666    1244.3319    277.62604            0    2526.0246   -3915.3358   -41.637587    32.098131    32.098131    32.098131            0            0            0   0.76439911 
   57000    33220.681    307.03707   -18005.188    2607.4594   -463.53581    2143.9236   -6579.4017   -1150.9354    2031.4371   -3034.8002    1049.3064    1244.3319    277.62604            0    2571.2644   -3915.3019   -41.449209    32.146684    32.146684    32.146684            0            0            0   0.76094079 
   58000    33371.433    307.03707   -20913.914    2607.4594   -413.41619    2194.0432   -7984.5101   -1154.5783     2033.707   -3036.1393    1100.7652    1244.3319    277.62604            0    2622.7231   -3915.2681   -41.261966    32.195236    32.195236    32.195236            0            0            0   0.75750331 
   59000    33522.641    307.03707   -23800.716    2607.4594   -356.73415    2250.7253   -9385.2861   -1157.9528     2036.052   -3037.1351     1158.443    1244.3319    277.62604            0    2680.4009   -3915.2342   -41.075849    32.243789    32.243789    32.243789            0            0            0    0.7540865 
   60000    33674.305    307.03707   -26661.265    2607.4594    -292.8329    2314.6265   -10778.859   -1161.0265    2039.0962   -3037.1306    1222.3398    1244.3319    277.62604            0    2744.2977   -3915.2003   -40.890849    32.292342    32.292342    32.292342            0            0            0   0.75069021 
   61000    33826.426    307.03707   -29500.992    2607.4594   -222.46032    2384.9991    -12168.54   -1163.8373    2042.1297   -3036.8739    1292.4556    1244.3319    277.62604            0    2814.4135   -3915.1663   -40.706959    32.340895    32.340895    32.340895            0            0            0   0.74731428 
   62000    33979.004    307.03707    -32321.13    2607.4594   -145.76132    2461.6981   -13555.003   -1166.3827    2045.0053   -3036.5097    1368.7904    1244.3319    277.62604            0    2890.7484   -3915.1324    -40.52417    32.389448    32.389448    32.389448            0            0            0   0.74395857 
   63000     34132.04    307.03707   -35120.209    2607.4594   -62.500427     2544.959   -14937.206   -1168.6697    2047.9654   -3035.8026    1451.3442    1244.3319    277.62604            0    2973.3022   -3915.0984   -40.342474    32.438001    32.438001    32.438001            0            0            0   0.74062292 
   64000    34285.535    307.03707    -37900.66    2607.4594     27.00037    2634.4598   -16316.604   -1170.7029    2050.6925   -3035.0747    1540.1171    1244.3319    277.62604            0    3062.0751   -3915.0643   -40.161862    32.486554    32.486554    32.486554            0            0            0   0.73730717 
   65000     34439.49    307.03707   -40661.451    2607.4594    122.91049    2730.3699   -17692.439   -1172.4975    2053.3714   -3034.1564    1635.1089    1244.3319    277.62604            0    3157.0669   -3915.0303   -39.982327    32.535107    32.535107    32.535107            0            0            0    0.7340112 
   66000    34593.905    307.03707   -43401.536    2607.4594    225.40892    2832.8683   -19063.928   -1174.0543    2056.1816   -3032.8689    1736.3198    1244.3319    277.62604            0    3258.2778   -3914.9962    -39.80386     32.58366     32.58366     32.58366            0            0            0   0.73073483 
   67000     34748.78    307.03707   -46119.663    2607.4594    334.70618    2942.1656   -20430.141   -1175.3754     2059.336   -3031.0015    1843.7497    1244.3319    277.62604            0    3365.7077   -3914.9621   -39.626454    32.632213    32.632213    32.632213            0            0            0   0.72747794 
   68000    34904.118    307.03707   -48821.537    2607.4594    449.99125    3057.4507   -21794.701   -1176.4806    2062.0433   -3029.3653    1957.3986    1244.3319    277.62604            0    3479.3565    -3914.928     -39.4501    32.680765    32.680765    32.680765            0            0            0   0.72424038 
   69000    35059.917    307.03707   -51506.115    2607.4594    571.43696    3178.8964   -23156.846   -1177.3788    2064.4851   -3027.7875    2077.2665    1244.3319    277.62604            0    3599.2244   -3914.8938   -39.274792    32.729318    32.729318    32.729318            0            0            0   0.72102199 
   70000    35216.179    307.03707   -54169.027    2607.4594    699.71365    3307.1731   -24513.598   -1178.0627    2067.3246   -3025.5977    2203.3534    1244.3319    277.62604            0    3725.3114   -3914.8596    -39.10052    32.777871    32.777871    32.777871            0            0            0   0.71782265 
   71000    35372.905    307.03707   -56813.485    2607.4594    834.37178    3441.8312    -25866.97   -1178.5439    2070.1238   -3023.2455    2335.6593    1244.3319    277.62604            0    3857.6173   -3914.8254   -38.927278    32.826424    32.826424    32.826424            0            0            0   0.71464221 
   72000    35530.096    307.03707   -59440.275    2607.4594    975.31908    3582.7785   -27217.389   -1178.8261    2072.7941   -3020.8231    2474.1843    1244.3319    277.62604            0    3996.1422   -3914.7912   -38.755058    32.874977    32.874977    32.874977            0            0            0   0.71148053 
   73000    35687.751    307.03707   -62050.218    2607.4594    1122.4511    3729.9105   -28565.319    -1178.924    2075.2458   -3018.4351    2618.9282    1244.3319    277.62604            0    4140.8862   -3914.7569   -38.583853     32.92353     32.92353     32.92353            0            0            0   0.70833747 
   74000    35845.872    307.03707   -64640.079    2607.4594    1276.2764    3883.7358     -29908.5   -1178.8393    2077.9892   -3015.5728    2769.8912    1244.3319    277.62604            0    4291.8491   -3914.7226   -38.413654    32.972083    32.972083    32.972083            0            0            0    0.7052129 
   75000    36004.459    307.03707   -67211.797    2607.4594     1436.532    4043.9915   -31248.124   -1178.5686    2080.7578   -3012.4991    2927.0731    1244.3319    277.62604            0    4449.0311   -3914.6883   -38.244455    33.020636    33.020636    33.020636            0            0            0   0.70210667 
   76000    36163.514    307.03707    -69766.64    2607.4594    1603.0441    4210.5035   -32584.963   -1178.1281    2083.3941    -3009.388    3090.4741    1244.3319    277.62604            0    4612.4321    -3914.654   -38.076248    33.069189    33.069189    33.069189            0            0            0   0.69901867 
   77000    36323.036    307.03707   -72303.412    2607.4594    1776.0183    4383.4777   -33918.114   -1177.5197    2086.1056   -3006.0338    3260.0941    1244.3319    277.62604            0    4782.0521   -3914.6197   -37.909027    33.117742    33.117742    33.117742            0            0            0   0.69594874 
   78000    36483.026    307.03707   -74823.135    2607.4594    1955.3229    4562.7823   -35248.178   -1176.7436    2088.7607   -3002.5682    3435.9331    1244.3319    277.62604            0    4957.8911   -3914.5853   -37.742783    33.166294    33.166294    33.166294            0            0            0   0.69289677 
   79000    36643.486    307.03707   -77326.275    2607.4594    2140.9031    4748.3626   -36575.391   -1175.8169    2091.3219    -2999.046    3617.9911    1244.3319    277.62604            0    5139.9491   -3914.5509   -37.577509    33.214847    33.214847    33.214847            0            0            0   0.68986261 
   80000    36804.416    307.03707   -79810.319    2607.4594     2333.169    4940.6284   -37897.932   -1174.7404    2094.1998   -2995.0571    3806.2681    1244.3319    277.62604            0    5328.2261   -3914.5165   -37.413199      33.2634      33.2634      33.2634            0            0            0   0.68684615 
   81000    36965.816    307.03707   -82278.547    2607.4594     2531.642    5139.1014   -39217.963   -1173.5084    2096.9103   -2991.0802    4000.7642    1244.3319    277.62604            0    5522.7221   -3914.4821   -37.249846    33.311953    33.311953    33.311953            0            0            0   0.68384724 
   82000    37127.687    307.03707   -84731.558    2607.4594    2736.2444    5343.7039   -40535.828   -1172.1342    2099.3891   -2987.1928    4201.4792    1244.3319    277.62604            0    5723.4372   -3914.4476   -37.087442    33.360506    33.360506    33.360506            0            0            0   0.68086577 
   83000     37290.03    307.03707    -87165.22    2607.4594    2947.6422    5555.1016   -41848.555   -1170.6204    2102.3044   -2982.7291    4408.4133    1244.3319    277.62604            0    5930.3713   -3914.4132   -36.925981    33.409059    33.409059    33.409059            0            0            0   0.67790161 
   84000    37452.845    307.03707   -89583.879    2607.4594     3165.178    5772.6374   -43159.093   -1168.9726     2105.005   -2978.3463    4621.5664    1244.3319    277.62604            0    6143.5243   -3914.3787   -36.765456    33.457612    33.457612    33.457612            0            0            0   0.67495462 
   85000    37616.134    307.03707   -91988.962    2607.4594    3388.6475    5996.1069   -44468.369   -1167.1909    2107.2862    -2974.249    4840.9384    1244.3319    277.62604            0    6362.8964   -3914.3442    -36.60586    33.506165    33.506165    33.506165            0            0            0    0.6720247 
   86000    37779.897    307.03707   -94377.294    2607.4594    3618.5688    6226.0282   -45774.072    -1165.281     2109.672   -2969.9187    5066.5295    1244.3319    277.62604            0    6588.4875   -3914.3097   -36.447186    33.554718    33.554718    33.554718            0            0            0    0.6691117 
   87000    37944.134    307.03707   -96749.665    2607.4594     3854.834    6462.2934   -47076.676   -1163.2556    2112.0671   -2965.4636    5298.3396    1244.3319    277.62604            0    6820.2976   -3914.2751   -36.289428    33.603271    33.603271    33.603271            0            0            0   0.66621552 
   88000    38108.847    307.03707    -99105.79    2607.4594    4097.5131    6704.9726   -48375.889   -1161.1106    2114.5376   -2960.8136    5536.3688    1244.3319    277.62604            0    7058.3267   -3914.2406   -36.132579    33.651823    33.651823    33.651823            0            0            0   0.66333603 
   89000    38274.035    307.03707   -101444.25    2607.4594    4346.8546     6954.314   -49670.602    -1158.849    2117.3347   -2955.7202    5780.6169    1244.3319    277.62604            0    7302.5749    -3914.206   -35.976633    33.700376    33.700376    33.700376            0            0            0   0.66047311 
   90000    38439.701    307.03707   -103767.94    2607.4594    4602.4132    7209.8727    -50962.81   -1156.4778    2120.0205   -2950.6287     6031.084    1244.3319    277.62604            0     7553.042   -3914.1714   -35.821583    33.748929    33.748929    33.748929            0            0            0   0.65762664 
   91000    38605.843    307.03707   -106076.02    2607.4594    4864.3437    7471.8031   -52251.822   -1154.0026     2122.755   -2945.3845    6287.7702    1244.3319    277.62604            0    7809.7281   -3914.1368   -35.667423    33.797482    33.797482    33.797482            0            0            0    0.6547965 
   92000    38772.464    307.03707   -108370.99    2607.4594    5132.2616     7739.721   -53539.373   -1151.4237    2125.1541   -2940.3718    6550.6753    1244.3319    277.62604            0    8072.6333   -3914.1022   -35.514146    33.846035    33.846035    33.846035            0            0            0   0.65198258 
   93000    38939.563    307.03707   -110650.19    2607.4594    5406.6151    8014.0745   -54823.461   -1148.7454    2127.6707   -2935.1424    6819.7995    1244.3319    277.62604            0    8341.7575   -3914.0676   -35.361746    33.894588    33.894588    33.894588            0            0            0   0.64918476 
   94000    39107.142    307.03707   -112915.63    2607.4594    5687.0962    8294.5556   -56105.466   -1145.9758    2130.0042   -2930.0044    7095.1427    1244.3319    277.62604            0    8617.1007   -3914.0329   -35.210216    33.943141    33.943141    33.943141            0            0            0   0.64640293 
   95000    39275.201    307.03707   -115164.29    2607.4594    5974.2174    8581.6768   -57383.108   -1143.1119    2132.6647   -2924.4455    7376.7049    1244.3319    277.62604            0    8898.6629   -3913.9983   -35.059551    33.991694    33.991694    33.991694            0            0            0   0.64363696 
   96000    39443.741    307.03707   -117397.95    2607.4594    6267.7116    8875.1711   -58657.591   -1140.1523    2135.3834   -2918.7324    7664.4861    1244.3319    277.62604            0    9186.4441   -3913.9636   -34.909745    34.040247    34.040247    34.040247            0            0            0   0.64088676 
   97000    39612.762    307.03707   -119618.55    2607.4594    6567.2681    9174.7275   -59930.287   -1137.1183     2137.871   -2913.1762    7958.4863    1244.3319    277.62604            0    9480.4443   -3913.9289   -34.760791      34.0888      34.0888      34.0888            0            0            0    0.6381522 
   98000    39782.265    307.03707   -121824.22    2607.4594    6873.2232    9480.6826   -61199.725   -1133.9932    2140.4471   -2907.4403    8258.7055    1244.3319    277.62604            0    9780.6635   -3913.8942   -34.612683    34.137352    34.137352    34.137352            0            0            0   0.63543317 
   99000    39952.252    307.03707    -124016.4    2607.4594    7185.3487    9792.8081   -62466.913   -1130.7933    2142.8997   -2901.7531    8565.1438    1244.3319    277.62604            0    10087.102   -3913.8595   -34.465415    34.185905    34.185905    34.185905            0            0            0   0.63272958 
  100000    40122.721    307.03707   -126196.49    2607.4594    7503.4311    10110.891   -63732.823   -1127.5148    2145.0117   -2896.3279     8877.801    1244.3319    277.62604            0    10399.759   -3913.8248   -34.318982    34.234458    34.234458    34.234458            0            0            0   0.63004129 
  101000    40293.675    307.03707   -128360.47    2607.4594    7828.1609     10435.62   -64994.371   -1124.1599    2147.4755   -2890.4744    9196.6773    1244.3319    277.62604            0    10718.635   -3913.7901   -34.173377    34.283011    34.283011    34.283011            0            0            0   0.62736822 
  102000    40465.114    307.03707   -130511.12    2607.4594    8159.0862    10766.546   -66253.572   -1120.7382    2149.8493   -2884.6443    9521.7726    1244.3319    277.62604            0    11043.731   -3913.7553   -34.028594    34.331564    34.331564    34.331564            0            0            0   0.62471024 
  103000    40637.039    307.03707   -132647.45    2607.4594    8496.3963    11103.856   -67509.594   -1117.2469     2152.319   -2878.6485    9853.0869    1244.3319    277.62604            0    11375.045   -3913.7206   -33.884628    34.380117    34.380117    34.380117            0            0            0   0.62206726 
  104000    40809.449    307.03707   -134771.16    2607.4594    8839.8204     11447.28   -68763.658   -1113.6859     2154.614   -2872.7577     10190.62    1244.3319    277.62604            0    11712.578   -3913.6858   -33.741473     34.42867     34.42867     34.42867            0            0            0   0.61943916 
  105000    40982.347    307.03707   -136878.69    2607.4594    9189.9833    11797.443   -70012.963   -1110.0625    2157.3664   -2866.3471    10534.372    1244.3319    277.62604            0     12056.33   -3913.6511   -33.599123    34.477223    34.477223    34.477223            0            0            0   0.61682585 
  106000    41155.732    307.03707   -138974.41    2607.4594    9546.1546    12153.614   -71260.792   -1106.3735    2159.8426   -2860.1472    10884.344    1244.3319    277.62604            0    12406.302   -3913.6163   -33.457573    34.525776    34.525776    34.525776            0            0            0   0.61422722 
  107000    41329.606    307.03707   -141056.78    2607.4594    9908.6094    12516.069   -72505.893   -1102.6382     2162.337   -2853.8827    11240.534    1244.3319    277.62604            0    12762.492   -3913.5815   -33.316817    34.574329    34.574329    34.574329            0            0            0   0.61164317 
  108000    41503.969    307.03707   -143127.06    2607.4594    10277.152    12884.612   -73749.168   -1098.8445    2164.6419   -2847.7493    11602.943    1244.3319    277.62604            0    13124.901   -3913.5467    -33.17685    34.622881    34.622881    34.622881            0            0            0   0.60907359 
  109000    41678.821    307.03707   -145182.85    2607.4594    10652.216    13259.675   -74988.686   -1094.9939    2167.1918    -2841.314    11971.572    1244.3319    277.62604            0     13493.53   -3913.5119   -33.037665    34.671434    34.671434    34.671434            0            0            0   0.60651838 
  110000    41854.164    307.03707   -147228.21    2607.4594    11033.105    13640.564   -76227.542    -1091.102    2169.3068   -2835.2723    12346.419    1244.3319    277.62604            0    13868.377   -3913.4771   -32.899258    34.719987    34.719987    34.719987            0            0            0   0.60397745 
  111000    42029.998    307.03707   -149258.72    2607.4594    11420.617    14028.077   -77462.209   -1087.1464    2171.7623   -2828.8264    12727.486    1244.3319    277.62604            0    14249.444   -3913.4423   -32.761623     34.76854     34.76854     34.76854            0            0            0   0.60145069 
  112000    42206.324    307.03707    -151275.1    2607.4594    11814.643    14422.102   -78693.161    -1083.142    2174.4635    -2822.086    13114.771    1244.3319    277.62604            0    14636.729   -3913.4075   -32.624754    34.817093    34.817093    34.817093            0            0            0     0.598938 
  113000    42383.142    307.03707   -153281.76    2607.4594    12214.416    14821.875   -79923.827   -1079.0957    2176.6506   -2815.8177    13508.275    1244.3319    277.62604            0    15030.233   -3913.3727   -32.488647    34.865646    34.865646    34.865646            0            0            0   0.59643929 
  114000    42560.453    307.03707   -155273.34    2607.4594    12620.902    15228.361   -81149.884   -1075.0101    2179.2928    -2809.055    13907.999    1244.3319    277.62604            0    15429.957   -3913.3378   -32.353296    34.914199    34.914199    34.914199            0            0            0   0.59395446 
  115000    42738.258    307.03707   -157252.03    2607.4594    13033.731     15641.19   -82373.003   -1070.8804     2182.015   -2802.1684    14313.941    1244.3319    277.62604            0    15835.899    -3913.303   -32.218695    34.962752    34.962752    34.962752            0            0            0   0.59148342 
  116000    42916.558    307.03707   -159222.08    2607.4594    13452.156    16059.616   -83596.525   -1066.7131    2184.0768   -2795.9045    14726.103    1244.3319    277.62604            0    16248.061   -3913.2682   -32.084841    35.011305    35.011305    35.011305            0            0            0   0.58902606 
  117000    43095.353    307.03707   -161178.63    2607.4594    13877.067    16484.526   -84816.486   -1062.5026    2186.3618   -2789.3741    15144.483    1244.3319    277.62604            0    16666.441   -3913.2333   -31.951726    35.059858    35.059858    35.059858            0            0            0    0.5865823 
  118000    43274.644    307.03707   -163123.95    2607.4594    14308.065    16915.525   -86034.656   -1058.2613    2188.4847   -2782.9751    15569.082    1244.3319    277.62604            0     17091.04   -3913.1985   -31.819348     35.10841     35.10841     35.10841            0            0            0   0.58415203 
  119000    43454.431    307.03707   -165057.39    2607.4594    14745.283    17352.743   -87250.449     -1053.99     2190.578   -2776.5756    15999.901    1244.3319    277.62604            0    17521.859   -3913.1636   -31.687699    35.156963    35.156963    35.156963            0            0            0   0.58173517 
  120000    43634.716    307.03707   -166977.53    2607.4594    15189.001    17796.461   -88462.627   -1049.6817    2192.9156   -2769.8949    16436.938    1244.3319    277.62604            0    17958.896   -3913.1288   -31.556775    35.205516    35.205516    35.205516            0            0            0   0.57933163 
  121000    43815.499    307.03707   -168885.97    2607.4594    15638.939    18246.398   -89672.431   -1045.3506    2195.2305    -2763.214    16880.195    1244.3319    277.62604            0    18402.153   -3913.0939   -31.426572    35.254069    35.254069    35.254069            0            0            0   0.57694131 
  122000     43996.78    307.03707   -170783.88    2607.4594    16094.898    18702.357   -90880.759   -1040.9912    2197.3197   -2756.7305     17329.67    1244.3319    277.62604            0    18851.628   -3913.0591   -31.297084    35.302622    35.302622    35.302622            0            0            0   0.57456412 
  123000     44178.56    307.03707   -172669.11    2607.4594    16557.289    19164.748   -92085.782   -1036.6034    2199.5934   -2750.0342    17785.365    1244.3319    277.62604            0    19307.323   -3913.0242   -31.168307    35.351175    35.351175    35.351175            0            0            0   0.57219997 
  124000    44360.841    307.03707   -174542.26    2607.4594    17026.018    19633.477   -93287.925   -1032.1857    2201.9566   -2743.2185    18247.278    1244.3319    277.62604            0    19769.236   -3912.9894   -31.040235    35.399728    35.399728    35.399728            0            0            0   0.56984878 
  125000    44543.622    307.03707    -176404.4    2607.4594    17500.904    20108.364   -94488.002   -1027.7411    2204.2308   -2736.4648    18715.411    1244.3319    277.62604            0    20237.369   -3912.9545   -30.912864    35.448281    35.448281    35.448281            0            0            0   0.56751045 
  126000    44726.905    307.03707   -178254.53    2607.4594    17982.146    20589.606   -95685.119   -1023.2753    2206.6206   -2729.5743    19189.763    1244.3319    277.62604            0    20711.721   -3912.9197   -30.786189    35.496834    35.496834    35.496834            0            0            0    0.5651849 
  127000     44910.69    307.03707   -180093.98    2607.4594    18469.508    21076.967   -96880.332   -1018.7936    2208.8949   -2722.7835    19670.333    1244.3319    277.62604            0    21192.291   -3912.8848   -30.660204    35.545387    35.545387    35.545387            0            0            0   0.56287203 
  128000    45094.977    307.03707   -181921.76    2607.4594    18963.195    21570.654   -98072.737   -1014.2864    2211.2507   -2715.8856    20157.123    1244.3319    277.62604            0    21679.081     -3912.85   -30.534907    35.593939    35.593939    35.593939            0            0            0   0.56057177 
  129000    45279.768    307.03707   -183738.28    2607.4594    19463.142    22070.602   -99262.623   -1009.7612    2213.6292   -2708.9471    20650.131    1244.3319    277.62604            0    22172.089   -3912.8151   -30.410291    35.642492    35.642492    35.642492            0            0            0   0.55828402 
  130000    45465.064    307.03707   -185545.43    2607.4594    19969.006    22576.466   -100451.53   -1005.2178    2215.6876   -2702.3105    21149.359    1244.3319    277.62604            0    22671.317   -3912.7803   -30.286352    35.691045    35.691045    35.691045            0            0            0   0.55600871 
  131000    45650.863    307.03707   -187340.97    2607.4594    20481.225    23088.684   -101637.51   -1000.6589    2217.8656   -2695.5387    21654.805    1244.3319    277.62604            0    23176.763   -3912.7454   -30.163086    35.739598    35.739598    35.739598            0            0            0   0.55374574 
  132000    45837.169    307.03707   -189123.89    2607.4594    21000.009    23607.469    -102819.6    -996.0881    2220.3788   -2688.4199    22166.471    1244.3319    277.62604            0    23688.429   -3912.7106   -30.040488    35.788151    35.788151    35.788151            0            0            0   0.55149504 
  133000    46023.981    307.03707   -190897.01    2607.4594    21524.835    24132.295   -104000.18    -991.4927    2222.6899   -2681.4785    22684.356    1244.3319    277.62604            0    24206.314   -3912.6758   -29.918554    35.836704    35.836704    35.836704            0            0            0   0.54925651 
  134000    46211.299    307.03707   -192662.06    2607.4594    22057.169    24664.628   -105178.89   -986.89092    2225.3014   -2673.2487    23208.459    1244.3319    277.62604            0    24730.417   -3911.6592   -29.797278    35.885257    35.885257    35.885257            0            0            0   0.54703009 
  135000    46399.125    307.03707   -194413.76    2607.4594    22594.481     25201.94   -106354.68   -982.27427    2227.6283   -2666.2589    23738.782    1244.3319    277.62604            0     25260.74   -3911.6129   -29.676657     35.93381     35.93381     35.93381            0            0            0   0.54481568 
  136000     46587.46    307.03707   -196155.29    2607.4594    23137.944    25745.404   -107528.45   -977.64952    2229.8786   -2659.3374    24275.324    1244.3319    277.62604            0    25797.282   -3911.5665   -29.556686    35.982363    35.982363    35.982363            0            0            0   0.54261321 
  137000    46776.303    307.03707   -197886.95    2607.4594    23687.514    26294.973   -108700.41   -973.01657    2232.0083   -2652.5282    24818.084    1244.3319    277.62604            0    26340.042     -3911.52   -29.437361    36.030916    36.030916    36.030916            0            0            0    0.5404226 
  138000    46965.656    307.03707   -199606.96    2607.4594    24243.553    26851.013   -109868.96   -968.37107    2234.3757   -2645.4687    25367.064    1244.3319    277.62604            0    26889.022   -3911.4734   -29.318678    36.079468    36.079468    36.079468            0            0            0   0.53824376 
  139000    47155.519    307.03707      -201317    2607.4594    24805.745    27413.205   -111035.49   -963.72105    2236.6727   -2638.4751    25922.263    1244.3319    277.62604            0    27444.221   -3911.4268   -29.200631    36.128021    36.128021    36.128021            0            0            0   0.53607661 
  140000    47345.894    307.03707   -203017.09    2607.4594    25374.103    27981.562   -112199.97   -959.05936    2238.9037   -2631.5357     26483.68    1244.3319    277.62604            0    28005.638   -3911.3801   -29.083218    36.176574    36.176574    36.176574            0            0            0   0.53392109 
  141000     47536.78    307.03707   -204706.88    2607.4594    25948.704    28556.164   -113362.03   -954.39676    2241.1595   -2624.5705    27051.317    1244.3319    277.62604            0    28573.275   -3911.3333   -28.966433    36.225127    36.225127    36.225127            0            0            0   0.53177711 
  142000    47728.178    307.03707   -206386.95    2607.4594    26529.447    29136.907   -114522.14   -949.73076    2243.3337   -2617.6835    27625.173    1244.3319    277.62604            0    29147.131   -3911.2864   -28.850272     36.27368     36.27368     36.27368            0            0            0   0.52964459 
  143000    47920.089    307.03707   -208056.88    2607.4594    27116.434    29723.893   -115679.85   -945.05992    2245.5275   -2610.7718    28205.248    1244.3319    277.62604            0    29727.205   -3911.2394   -28.734732    36.322233    36.322233    36.322233            0            0            0   0.52752346 
  144000    48112.515    307.03707   -209715.96    2607.4594    27709.821     30317.28   -116834.47    -940.3818    2247.8956   -2603.6786    28791.541    1244.3319    277.62604            0    30313.499   -3911.1924   -28.619808    36.370786    36.370786    36.370786            0            0            0   0.52541363 
  145000    48305.454    307.03707   -211365.93    2607.4594    28309.267    30916.726   -117987.51   -935.70421    2250.1042   -2596.7453    29384.054    1244.3319    277.62604            0    30906.012   -3911.1453   -28.505496    36.419339    36.419339    36.419339            0            0            0   0.52331505 
  146000    48498.909    307.03707   -213007.33    2607.4594    28914.677    31522.136   -119139.41   -931.02066     2252.052   -2590.0667    29982.786    1244.3319    277.62604            0    31504.744   -3911.0981   -28.391792    36.467892    36.467892    36.467892            0            0            0   0.52122763 
  147000     48692.88    307.03707   -214637.14    2607.4594    29526.674    32134.134   -120287.36   -926.34949    2254.3799   -2583.0204    30587.737    1244.3319    277.62604            0    32109.695   -3911.0508   -28.278692    36.516445    36.516445    36.516445            0            0            0   0.51915129 
  148000    48887.367    307.03707   -216259.39    2607.4594    30144.454    32751.913      -121435   -921.67249    2256.2652   -2576.4107    31198.906    1244.3319    277.62604            0    32720.864   -3911.0035   -28.166192    36.564997    36.564997    36.564997            0            0            0   0.51708597 
  149000    49082.371    307.03707   -217869.72    2607.4594    30768.925    33376.384   -122578.25   -916.99012    2258.6178   -2569.3283    31816.295    1244.3319    277.62604            0    33338.253    -3910.956   -28.054287     36.61355     36.61355     36.61355            0            0            0   0.51503158 
  150000    49277.893    307.03707   -219472.76    2607.4594     31399.14    34006.599   -123721.35   -912.31872    2260.5058   -2562.7214    32439.903    1244.3319    277.62604            0    33961.861   -3910.9085   -27.942975    36.662103    36.662103    36.662103            0            0            0   0.51298807 
  150486    49373.104    307.03707   -220247.85    2607.4594    31707.785    34315.245   -124275.56   -910.04571    2261.5366   -2559.3946    32745.222    1244.3319    277.62604            0     34267.18   -3910.8854    -27.88909      36.6857      36.6857      36.6857            0            0            0   0.51199882 
Loop time of 190.128 on 48 procs for 100000 steps with 2850 atoms

Performance: 45.443 ns/day, 0.528 hours/ns, 525.962 timesteps/s
50.8% CPU use with 48 MPI tasks x 1 OpenMP threads

MPI task timing breakdown:
Section |  min time  |  avg time  |  max time  |%varavg| %total
---------------------------------------------------------------
Pair    | 32.134     | 47.649     | 59.766     |  92.0 | 25.06
Bond    | 1.6959     | 3.4211     | 4.8566     |  42.1 |  1.80
Kspace  | 29.399     | 47.717     | 65.278     | 109.8 | 25.10
Neigh   | 0.023646   | 0.026812   | 0.029234   |   1.1 |  0.01
Comm    | 62.852     | 74.742     | 89.608     |  77.0 | 39.31
Output  | 0.11122    | 0.11894    | 0.13306    |   1.2 |  0.06
Modify  | 0.55753    | 0.64087    | 0.92114    |  12.5 |  0.34
Other   |            | 15.81      |            |       |  8.32

Nlocal:    59.375 ave 72 max 45 min
Histogram: 3 2 4 4 9 6 8 5 4 3
Nghost:    2679.04 ave 2708 max 2655 min
Histogram: 8 3 7 6 2 4 5 5 6 2
Neighs:    15858 ave 20251 max 10199 min
Histogram: 2 1 3 3 11 7 8 7 2 4

Total # of neighbors = 761182
Ave neighs/atom = 267.081
Ave special neighs/atom = 8.73684
Neighbor list builds = 22
Dangerous builds = 0
# >>>>>>>>>  Equilibration run <<<<<<<<<<<<<<<<<<<<<<<<<<<<<<<<<<

fix             NVT_equib all nvt temp ${simulationTemp} ${simulationTemp} 100
fix             NVT_equib all nvt temp 310 ${simulationTemp} 100
fix             NVT_equib all nvt temp 310 310 100

print           "Step Density Temperature Pressure KinEng PotEng TotEng" file Properties_equib_acetone25p.txt
Step Density Temperature Pressure KinEng PotEng TotEng
fix             PRINT_equib all print ${printfreq} "$(v_step) $(v_density) $(v_temp) $(v_press) $(v_pe) $(v_ke) $(v_etotal) $(v_enthalpy)" append Properties_equib_acetone25p.txt title ""
fix             PRINT_equib all print 1000 "$(v_step) $(v_density) $(v_temp) $(v_press) $(v_pe) $(v_ke) $(v_etotal) $(v_enthalpy)" append Properties_equib_acetone25p.txt title ""
# The 'print' and fix print' commands as used above will create a file named 'Properties_equib.txt' which allows you to quickly make plots to test for equilibration


run             ${NVT_equib}
run             100000
Ewald initialization ...
  using 12-bit tables for long-range coulomb (src/kspace.cpp:332)
  G vector (1/distance) = 0.168295
  estimated absolute RMS force accuracy = 0.0454416
  estimated relative force accuracy = 0.000136846
  KSpace vectors: actual max1d max3d = 128 4 364
                  kxmax kymax kzmax  = 4 4 4
Per MPI rank memory allocation (min/avg/max) = 23.12 | 23.41 | 23.6 Mbytes
Step Volume Temp Press KinEng PotEng TotEng Enthalpy E_vdwl E_coul E_pair E_bond E_angle E_dihed E_impro E_mol E_long E_tail Lx Ly Lz Xy Xz Yz Density 
  150486    49373.104    307.03707   -220246.36    2607.4594    31707.767    34315.227   -124274.51   -910.04076    2164.4142   -2560.0426    32745.852    1244.3319    277.62604            0     34267.81   -3814.4161    -27.88909      36.6857      36.6857      36.6857            0            0            0   0.51199882 
151000 0.5119988242395689948 387.22638475931802304 9659.4709316042208229 793.66395839261804213 3288.4534047505499075 4082.1173631431702233 11037.478110784999444
  151000    49373.104    387.22638    9659.4709    3288.4534    793.66396    4082.1174    11037.478   -583.24199    2004.2114   -2397.1424    1411.0568    1522.0116    257.73796            0    3190.8064   -3818.1118    -27.88909      36.6857      36.6857      36.6857            0            0            0   0.51199882 
152000 0.5119988242395689948 297.0200183883919749 -1678.9360328123500494 -204.13492314062901301 2522.3913689545502166 2318.2564458139199814 1109.3283520176898946
  152000    49373.104    297.02002    -1678.936    2522.3914   -204.13492    2318.2564    1109.3284   -770.85231    1925.9258   -2659.2419    964.93808    1241.9941    248.17476            0     2455.107   -3814.3154    -27.88909      36.6857      36.6857      36.6857            0            0            0   0.51199882 
153000 0.5119988242395689948 307.90223596028698694 -1497.0821381329399173 -202.2676432929999919 2614.8067281191301845 2412.5390848261299652 1334.5559930714200618
  153000    49373.104    307.90224   -1497.0821    2614.8067   -202.26764    2412.5391     1334.556   -801.89867    1948.6341   -2666.3456    917.58231    1291.8446    254.65106            0     2464.078    -3813.081    -27.88909      36.6857      36.6857      36.6857            0            0            0   0.51199882 
154000 0.5119988242395689948 323.97354673961200433 525.85806370308500846 -249.64864762307101387 2751.2895679543498773 2501.6409203312800855 2880.2882148890498684
  154000    49373.104    323.97355    525.85806    2751.2896   -249.64865    2501.6409    2880.2882   -826.13086    1938.5021   -2700.7118    893.54088    1305.9923    251.52993            0    2451.0631    -3813.083    -27.88909      36.6857      36.6857      36.6857            0            0            0   0.51199882 
155000 0.5119988242395689948 305.24687969007402444 -1223.6863481873299406 -271.59245325779301083 2592.2565721605301405 2320.6641189027400287 1439.5413272020000477
  155000    49373.104    305.24688   -1223.6863    2592.2566   -271.59245    2320.6641    1439.5413   -835.04104    1920.6996   -2724.9405    877.39109    1324.7298    251.22715            0     2453.348    -3810.599    -27.88909      36.6857      36.6857      36.6857            0            0            0   0.51199882 
156000 0.5119988242395689948 305.82916098375602587 -416.50553953911600047 -330.18115130011102565 2597.2014957971800868 2267.0203444970698001 1967.1129995298199447
  156000    49373.104    305.82916   -416.50554    2597.2015   -330.18115    2267.0203     1967.113   -866.76761    1946.4357   -2734.3343     891.2177    1240.5746    272.36086            0    2404.1531   -3814.0024    -27.88909      36.6857      36.6857      36.6857            0            0            0   0.51199882 
157000 0.5119988242395689948 313.15821490310901254 -759.34706466390798596 -274.51911838012398448 2659.4422243820299627 2384.9231060019001234 1838.150637323519959
  157000    49373.104    313.15821   -759.34706    2659.4422   -274.51912    2384.9231    1838.1506   -853.21431    1937.5471   -2730.3992    896.66915    1296.5852    262.62575            0    2455.8801    -3814.732    -27.88909      36.6857      36.6857      36.6857            0            0            0   0.51199882 
158000 0.5119988242395689948 306.96229275319200269 -563.54765079586195498 -373.8778643317950241 2606.8244222605999312 2232.946557928799848 1827.1606471345899081
  158000    49373.104    306.96229   -563.54765    2606.8244   -373.87786    2232.9466    1827.1606   -881.61421     1955.385   -2735.6043    869.89997    1237.7997    254.02676            0    2361.7264   -3809.3751    -27.88909      36.6857      36.6857      36.6857            0            0            0   0.51199882 
159000 0.5119988242395689948 310.75301829167699452 682.65954978058402958 -325.46540118114501183 2639.0165062562600724 2313.551105075110172 2805.1042626100202142
  159000    49373.104    310.75302    682.65955    2639.0165    -325.4654    2313.5511    2805.1043   -862.24214    1957.4966   -2718.6719    876.40244    1253.3512    263.45281            0    2393.2065   -3813.9263    -27.88909      36.6857      36.6857      36.6857            0            0            0   0.51199882 
160000 0.5119988242395689948 316.45487351544801413 -660.94821378376298071 -286.5579406615530047 2687.4385300696799277 2400.8805894081301631 1924.9608113036699706
  160000    49373.104    316.45487   -660.94821    2687.4385   -286.55794    2400.8806    1924.9608   -842.32233    1938.1271   -2713.5516    868.86116    1290.0892    268.04327            0    2426.9936   -3809.3563    -27.88909      36.6857      36.6857      36.6857            0            0            0   0.51199882 
161000 0.5119988242395689948 295.44975515362102669 -553.58890822157900402 -338.45585346630400636 2509.0561787816300239 2170.6003253153298829 1771.9852676338200581
  161000    49373.104    295.44976   -553.58891    2509.0562   -338.45585    2170.6003    1771.9853   -836.76332    1918.4244   -2732.5303    886.90687    1237.6423    269.52533            0    2394.0745   -3814.1914    -27.88909      36.6857      36.6857      36.6857            0            0            0   0.51199882 
162000 0.5119988242395689948 310.94657313936102128 -637.42700005124697782 -389.66186078429501549 2640.6602374763401713 2250.9983766920499875 1792.0151914807599951
  162000    49373.104    310.94657     -637.427    2640.6602   -389.66186    2250.9984    1792.0152   -863.10218    1933.5886   -2739.0961    883.37665    1191.3448    274.71284            0    2349.4343   -3809.5826    -27.88909      36.6857      36.6857      36.6857            0            0            0   0.51199882 
163000 0.5119988242395689948 315.04384743550298253 -25.683325009806001304 -236.1894967756649919 2675.4556340186500165 2439.2661372429902258 2420.7727029848401799
  163000    49373.104    315.04385   -25.683325    2675.4556    -236.1895    2439.2661    2420.7727   -835.78349    1955.1618   -2693.9125     919.7097    1259.5837    278.42959            0     2457.723   -3813.2908    -27.88909      36.6857      36.6857      36.6857            0            0            0   0.51199882 
164000 0.5119988242395689948 313.83788308096700348 479.15511592247997896 -307.14398693767299164 2665.2141893656798857 2358.0702024280099067 2703.0887556093198327
  164000    49373.104    313.83788    479.15512    2665.2142   -307.14399    2358.0702    2703.0888   -846.28247    1978.2283   -2680.8943     865.2828    1229.8893    278.57822            0    2373.7503   -3812.8401    -27.88909      36.6857      36.6857      36.6857            0            0            0   0.51199882 
165000 0.5119988242395689948 301.35185641933901479 417.27303376970399995 -320.75871108521397446 2559.1787576304300273 2238.4200465452099706 2538.8800303974799135
  165000    49373.104    301.35186    417.27303    2559.1788   -320.75871      2238.42      2538.88   -853.44347    1973.2841   -2693.9332    898.29544    1202.7832    272.09578            0    2373.1745   -3813.7738    -27.88909      36.6857      36.6857      36.6857            0            0            0   0.51199882 
166000 0.5119988242395689948 308.89918044788498719 735.30976384235805199 -225.10573244099998647 2623.2731075385700024 2398.1673750975701296 2927.6316392379098943
  166000    49373.104    308.89918    735.30976    2623.2731   -225.10573    2398.1674    2927.6316   -834.79977    1977.8115   -2670.0471    915.21622    1249.3585    280.36659            0    2444.9413   -3813.0588    -27.88909      36.6857      36.6857      36.6857            0            0            0   0.51199882 
167000 0.5119988242395689948 314.09799945353802286 -816.3478349867759789 -273.28194541141800755 2667.4231828761398901 2394.1412374647297838 1806.3250177055299446
  167000    49373.104      314.098   -816.34783    2667.4232   -273.28195    2394.1412     1806.325   -856.02437    1984.3733   -2683.2988    887.43836    1255.7294    266.84909            0    2410.0169   -3811.6478    -27.88909      36.6857      36.6857      36.6857            0            0            0   0.51199882 
168000 0.5119988242395689948 299.12115116629502154 923.94621315523602334 -311.5556606042540011 2540.2348773240100854 2228.6792167197600065 2893.9723025849598343
  168000    49373.104    299.12115    923.94621    2540.2349   -311.55566    2228.6792    2893.9723   -869.44593    1965.0211   -2717.0429    864.45509    1260.0481    280.98409            0    2405.4872    -3812.618    -27.88909      36.6857      36.6857      36.6857            0            0            0   0.51199882 
169000 0.5119988242395689948 319.40861291147501788 -1052.1503155723100917 -364.91281052903900672 2712.5226533523700709 2347.6098428233299273 1590.0026138800799345
  169000    49373.104    319.40861   -1052.1503    2712.5227   -364.91281    2347.6098    1590.0026   -869.19007    1998.0259   -2684.4832     833.4501    1229.3241    256.79625            0    2319.5704    -3813.319    -27.88909      36.6857      36.6857      36.6857            0            0            0   0.51199882 
170000 0.5119988242395689948 310.01715706620501578 -1730.7912401794499146 -359.14983076661297901 2632.7673314903499886 2273.6175007237397949 1027.3507497240400426
  170000    49373.104    310.01716   -1730.7912    2632.7673   -359.14983    2273.6175    1027.3507   -902.47823    1993.6446   -2722.1981    870.73968     1213.344    278.96451            0    2363.0482   -3813.3645    -27.88909      36.6857      36.6857      36.6857            0            0            0   0.51199882 
171000 0.5119988242395689948 318.75681518948397297 -26.789267143562799589 -303.80854116900098916 2706.9873734167799739 2403.1788322477800648 2383.8890576350900119
  171000    49373.104    318.75682   -26.789267    2706.9874   -303.80854    2403.1788    2383.8891   -874.28087    1969.3546   -2718.1562    870.40939     1264.077    279.86127            0    2414.3477   -3813.2299    -27.88909      36.6857      36.6857      36.6857            0            0            0   0.51199882 
172000 0.5119988242395689948 314.79098708646199611 473.93428896188999033 -362.03163572171501983 2673.3082610387700697 2311.2766253170598247 2652.5358903169399127
  172000    49373.104    314.79099    473.93429    2673.3083   -362.03164    2311.2766    2652.5359   -873.15809    1975.1558   -2710.1817    874.79155    1187.5506    285.80788            0    2348.1501   -3812.1794    -27.88909      36.6857      36.6857      36.6857            0            0            0   0.51199882 
173000 0.5119988242395689948 301.15942006345602522 -1493.2776718281800186 -338.40031388238799082 2557.5445250093898721 2219.144211126999835 1143.9005484558499575
  173000    49373.104    301.15942   -1493.2777    2557.5445   -338.40031    2219.1442    1143.9005   -871.89522    1976.5336   -2707.3253    878.58022    1198.0861    292.25874            0     2368.925   -3811.9637    -27.88909      36.6857      36.6857      36.6857            0            0            0   0.51199882 
174000 0.5119988242395689948 314.74570827399600148 83.140982690968996849 -325.53727268200702838 2672.9237385194401213 2347.3864658374400278 2407.2526356953599134
  174000    49373.104    314.74571    83.140983    2672.9237   -325.53727    2347.3865    2407.2526   -832.22688    1968.3204   -2676.9902    869.11143    1205.0823    277.25917            0    2351.4529   -3813.0838    -27.88909      36.6857      36.6857      36.6857            0            0            0   0.51199882 
175000 0.5119988242395689948 312.07302102603199501 -1216.968288556799962 -271.16990807412599906 2650.2264022161298271 2379.0564941419997922 1502.7710821057698922
  175000    49373.104    312.07302   -1216.9683    2650.2264   -271.16991    2379.0565    1502.7711   -841.54057    1979.9537   -2676.0429      880.393    1238.3229    286.15711            0     2404.873   -3814.4561    -27.88909      36.6857      36.6857      36.6857            0            0            0   0.51199882 
176000 0.5119988242395689948 302.91182399000399528 112.87477095758599432 -279.25907557891201805 2572.4265136485000767 2293.1674380695899345 2374.4436028695499772
  176000    49373.104    302.91182    112.87477    2572.4265   -279.25908    2293.1674    2374.4436   -859.88577    1971.2701   -2700.3947    887.32078    1251.4854    282.32941            0    2421.1356   -3811.7791    -27.88909      36.6857      36.6857      36.6857            0            0            0   0.51199882 
177000 0.5119988242395689948 314.79641988572802802 -136.9310215443589982 -323.81937133157197195 2673.3543981511797938 2349.5350268196098114 2250.937012588000016
  177000    49373.104    314.79642   -136.93102    2673.3544   -323.81937     2349.535     2250.937   -854.36602    1984.9848    -2680.638    865.48602    1207.0653    284.26724            0    2356.8186   -3811.2567    -27.88909      36.6857      36.6857      36.6857            0            0            0   0.51199882 
178000 0.5119988242395689948 306.34752395493302402 -1522.7442351608599438 -389.07627182713497405 2601.6036040846202013 2212.5273322574898884 1116.0660915819898946
  178000    49373.104    306.34752   -1522.7442    2601.6036   -389.07627    2212.5273    1116.0661   -860.95484    1933.3854   -2737.7338    879.48467    1181.5184    287.65449            0    2348.6575   -3810.1643    -27.88909      36.6857      36.6857      36.6857            0            0            0   0.51199882 
179000 0.5119988242395689948 313.96774056416700205 -718.38818497782494887 -335.96532210314398981 2666.3169816845202149 2330.3516595813698586 1813.0718811396600358
  179000    49373.104    313.96774   -718.38818     2666.317   -335.96532    2330.3517    1813.0719   -862.58599    1981.1205   -2693.0874    854.56179     1220.914    281.64628            0     2357.122   -3811.6218    -27.88909      36.6857      36.6857      36.6857            0            0            0   0.51199882 
180000 0.5119988242395689948 309.92076818116800041 -784.30372669512701123 -339.4840005001190093 2631.9487654792201283 2292.4647649790999822 1727.7221001364300719
  180000    49373.104    309.92077   -784.30373    2631.9488     -339.484    2292.4648    1727.7221   -865.71142    1977.2306   -2700.1582    890.36254    1173.0484    297.26321            0    2360.6742   -3811.6773    -27.88909      36.6857      36.6857      36.6857            0            0            0   0.51199882 
181000 0.5119988242395689948 311.98494408677498768 621.98610776271004852 -328.43337562483401371 2649.4784239734799485 2321.0450483486401936 2768.909925228890188
  181000    49373.104    311.98494    621.98611    2649.4784   -328.43338     2321.045    2768.9099    -852.8804    1963.8662   -2703.1934    893.50319    1195.8306    285.42626            0      2374.76   -3814.1792    -27.88909      36.6857      36.6857      36.6857            0            0            0   0.51199882 
182000 0.5119988242395689948 316.43159033376798561 -426.59350465091398519 -379.643746968576977 2687.240801657870179 2307.5970546892999664 2000.4258091358799447
  182000    49373.104    316.43159    -426.5935    2687.2408   -379.64375    2307.5971    2000.4258   -852.94324    1966.9956   -2696.3383    849.96123    1184.7921    281.94121            0    2316.6945   -3810.3907    -27.88909      36.6857      36.6857      36.6857            0            0            0   0.51199882 
183000 0.5119988242395689948 299.70512475200098379 -1023.3078816312199706 -306.43137022590900642 2545.1941724593098115 2238.7628022334001798 1501.9237431330700474
  183000    49373.104    299.70512   -1023.3079    2545.1942   -306.43137    2238.7628    1501.9237   -855.31036     1966.132   -2695.7759    894.76465    1192.3478    302.23211            0    2389.3445   -3806.5975    -27.88909      36.6857      36.6857      36.6857            0            0            0   0.51199882 
184000 0.5119988242395689948 307.29215214589601146 -369.11607900528400705 -269.40662451917000908 2609.6256963620498937 2340.2190718428801119 2074.4347959321898998
  184000    49373.104    307.29215   -369.11608    2609.6257   -269.40662    2340.2191    2074.4348   -846.77865    1959.1109   -2701.5328    910.54205    1207.5638    314.02028            0    2432.1262   -3813.8651    -27.88909      36.6857      36.6857      36.6857            0            0            0   0.51199882 
185000 0.5119988242395689948 310.19614040845402769 -574.63712421016600729 -215.24807950665899625 2634.2873167092798212 2419.0392372026199155 2005.2682836825699724
  185000    49373.104    310.19614   -574.63712    2634.2873   -215.24808    2419.0392    2005.2683    -814.4033    1969.0549   -2659.9915     895.3002    1240.7611    308.68217            0    2444.7434   -3814.6432    -27.88909      36.6857      36.6857      36.6857            0            0            0   0.51199882 
186000 0.5119988242395689948 310.95061828950798599 -300.63451306660999762 -347.50251384430799817 2640.6945902175298215 2293.1920763732200612 2076.7183681985397925
  186000    49373.104    310.95062   -300.63451    2640.6946   -347.50251    2293.1921    2076.7184   -868.84107    1963.6778   -2720.8444     890.6974    1182.4845    300.15997            0    2373.3418   -3815.6811    -27.88909      36.6857      36.6857      36.6857            0            0            0   0.51199882 
187000 0.5119988242395689948 313.40153683113402394 -803.79692206930599241 -315.41280009743798018 2661.5085939636401235 2346.0957938661999833 1767.3169352286899993
  187000    49373.104    313.40154   -803.79692    2661.5086    -315.4128    2346.0958    1767.3169   -873.18045    1990.2972   -2695.7673    870.06574    1223.9672    286.32151            0    2380.3545    -3812.884    -27.88909      36.6857      36.6857      36.6857            0            0            0   0.51199882 
188000 0.5119988242395689948 309.30687259528298227 -1459.9198960107601124 -289.23864975410100442 2626.7353629089898277 2337.4967131548801262 1286.272519685719999
[...]
253000 0.5119988242395689948 309.21682295561998899 -63.893332169765798767 -397.27401427216699403 2625.9706318477701643 2228.696617575610162 2182.6898354488898804
  253000    49373.104    309.21682   -63.893332    2625.9706   -397.27401    2228.6966    2182.6898   -902.10139    1982.1493   -2732.6493    845.15497    1200.4634    289.75696            0    2335.3753   -3812.6973    -27.88909      36.6857      36.6857      36.6857            0            0            0   0.51199882 
254000 0.5119988242395689948 310.76362525272998028 545.12720526645705377 -398.56408707613900333 2639.1065840468199895 2240.5424969706900811 2633.0646540151901718
254000 0.5119988242395689948 310.76362525272998028 545.12720526645705377 -398.56408707613900333 2639.1065840468199895 2240.5424969706900811 2633.0646540151901718
  254000    49373.104    310.76363    545.12721    2639.1066   -398.56409    2240.5425    2633.0647   -878.01515    1961.2482   -2731.5155    840.31387    1216.8616    275.77591            0    2332.9514   -3814.7485    -27.88909      36.6857      36.6857      36.6857            0            0            0   0.51199882 
255000 0.5119988242395689948 313.67464157866601226 -127.37644916844099896 -310.28513052157200036 2663.8278890122801386 2353.5427584907101846 2261.8245721642201715
255000 0.5119988242395689948 313.67464157866601226 -127.37644916844099896 -310.28513052157200036 2663.8278890122801386 2353.5427584907101846 2261.8245721642201715
  255000    49373.104    313.67464   -127.37645    2663.8279   -310.28513    2353.5428    2261.8246   -850.15792    1969.8674   -2690.1214    868.66298    1239.0654    272.10787            0    2379.8363   -3809.8309    -27.88909      36.6857      36.6857      36.6857            0            0            0   0.51199882 
256000 0.5119988242395689948 303.04679597883801989 -360.84172395545499512 -404.9402530275399954 2573.572740025890198 2168.6324869983500321 1908.8062107268799537
256000 0.5119988242395689948 303.04679597883801989 -360.84172395545499512 -404.9402530275399954 2573.572740025890198 2168.6324869983500321 1908.8062107268799537
  256000    49373.104     303.0468   -360.84172    2573.5727   -404.94025    2168.6325    1908.8062   -856.33548    1971.0395   -2699.0078    844.21933    1173.1372    276.71096            0    2294.0675   -3813.7118    -27.88909      36.6857      36.6857      36.6857            0            0            0   0.51199882 
257000 0.5119988242395689948 310.21785282708998466 -732.37914213287297116 -317.91667862368501574 2634.471705686380119 2316.5550270626899874 1789.2009748944799412
257000 0.5119988242395689948 310.21785282708998466 -732.37914213287297116 -317.91667862368501574 2634.471705686380119 2316.5550270626899874 1789.2009748944799412
  257000    49373.104    310.21785   -732.37914    2634.4717   -317.91668     2316.555     1789.201   -854.96489    1971.1736   -2693.9613    884.34249    1207.3928    284.30937            0    2376.0446     -3810.17    -27.88909      36.6857      36.6857      36.6857            0            0            0   0.51199882 
258000 0.5119988242395689948 303.61863588868499164 120.03238175296900181 -327.96063600395001458 2578.4289920079900185 2250.4683560040298289 2336.8984019560298293
258000 0.5119988242395689948 303.61863588868499164 120.03238175296900181 -327.96063600395001458 2578.4289920079900185 2250.4683560040298289 2336.8984019560298293
  258000    49373.104    303.61864    120.03238     2578.429   -327.96064    2250.4684    2336.8984   -867.61684    1956.2706   -2721.0602    881.89177     1227.443    283.76481            0    2393.0996   -3809.7139    -27.88909      36.6857      36.6857      36.6857            0            0            0   0.51199882 
259000 0.5119988242395689948 309.9273528710010055 -747.16410745840994423 -326.43741057211997258 2632.0046848239599058 2305.56727425183999 1767.5672179485500237
259000 0.5119988242395689948 309.9273528710010055 -747.16410745840994423 -326.43741057211997258 2632.0046848239599058 2305.56727425183999 1767.5672179485500237
  259000    49373.104    309.92735   -747.16411    2632.0047   -326.43741    2305.5673    1767.5672   -883.39014    1982.1406   -2714.0517    877.91819    1225.9916    283.70453            0    2387.6143   -3812.8022    -27.88909      36.6857      36.6857      36.6857            0            0            0   0.51199882 
260000 0.5119988242395689948 311.39167518943997948 -437.29875881606801613 -386.0445710394359935 2644.4401900045099865 2258.3956189650798478 1943.5159900911799014
260000 0.5119988242395689948 311.39167518943997948 -437.29875881606801613 -386.0445710394359935 2644.4401900045099865 2258.3956189650798478 1943.5159900911799014
  260000    49373.104    311.39168   -437.29876    2644.4402   -386.04457    2258.3956     1943.516   -872.74036    1968.5193   -2715.9969    879.28157    1187.7016    262.96915            0    2329.9524   -3811.7759    -27.88909      36.6857      36.6857      36.6857            0            0            0   0.51199882 
261000 0.5119988242395689948 303.98346513904999711 123.44627797562100113 -473.03002339582798186 2581.5272416049501771 2108.4972182091200921 2197.3854608834499231
261000 0.5119988242395689948 303.98346513904999711 123.44627797562100113 -473.03002339582798186 2581.5272416049501771 2108.4972182091200921 2197.3854608834499231
  261000    49373.104    303.98347    123.44628    2581.5272   -473.03002    2108.4972    2197.3855   -890.35943    1963.3962    -2738.376    826.28638     1165.787    273.27259            0     2265.346   -3811.4128    -27.88909      36.6857      36.6857      36.6857            0            0            0   0.51199882 
262000 0.5119988242395689948 312.25993403783002123 31.29077779420590133 -281.82829736485200556 2651.8137287884601392 2369.9854314236099526 2392.5165461372498612
262000 0.5119988242395689948 312.25993403783002123 31.29077779420590133 -281.82829736485200556 2651.8137287884601392 2369.9854314236099526 2392.5165461372498612
  262000    49373.104    312.25993    31.290778    2651.8137    -281.8283    2369.9854    2392.5165   -841.32976    1971.1735   -2684.7326    877.92416    1253.2497    271.73049            0    2402.9043   -3814.5763    -27.88909      36.6857      36.6857      36.6857            0            0            0   0.51199882 
263000 0.5119988242395689948 296.07459759836302737 754.96685065590702379 -378.26343099914402046 2514.3625456660101918 2136.0991146668698093 2679.7175836289898143
263000 0.5119988242395689948 296.07459759836302737 754.96685065590702379 -378.26343099914402046 2514.3625456660101918 2136.0991146668698093 2679.7175836289898143
  263000    49373.104     296.0746    754.96685    2514.3625   -378.26343    2136.0991    2679.7176   -886.49449     1969.864   -2728.3264    879.22287    1183.1673    287.67281            0     2350.063   -3811.6959    -27.88909      36.6857      36.6857      36.6857            0            0            0   0.51199882 
264000 0.5119988242395689948 304.90219118627300077 87.073182064644100819 -354.99357154152102112 2589.3293643861798046 2234.3357928446598635 2297.0333667586901356
264000 0.5119988242395689948 304.90219118627300077 87.073182064644100819 -354.99357154152102112 2589.3293643861798046 2234.3357928446598635 2297.0333667586901356
  264000    49373.104    304.90219    87.073182    2589.3294   -354.99357    2234.3358    2297.0334   -871.92431    1987.5835   -2694.8119    899.20834    1186.7284    253.88159            0    2339.8183   -3810.4711    -27.88909      36.6857      36.6857      36.6857            0            0            0   0.51199882 
265000 0.5119988242395689948 312.2593786793930235 -944.01474540211199837 -347.82061062752597991 2651.8090125025601083 2303.9884018750299219 1624.2448474033099046
265000 0.5119988242395689948 312.2593786793930235 -944.01474540211199837 -347.82061062752597991 2651.8090125025601083 2303.9884018750299219 1624.2448474033099046
  265000    49373.104    312.25938   -944.01475     2651.809   -347.82061    2303.9884    1624.2448   -879.34487    1998.0024   -2694.1645    878.99358    1214.2604    253.08989            0    2346.3439    -3812.822    -27.88909      36.6857      36.6857      36.6857            0            0            0   0.51199882 
266000 0.5119988242395689948 314.37803788530999327 -204.63340659014500034 -383.20762842653897451 2669.8013610444400001 2286.5937326179000593 2139.2462045875099648
266000 0.5119988242395689948 314.37803788530999327 -204.63340659014500034 -383.20762842653897451 2669.8013610444400001 2286.5937326179000593 2139.2462045875099648
  266000    49373.104    314.37804   -204.63341    2669.8014   -383.20763    2286.5937    2139.2462   -902.49522    1993.1382   -2720.0051    863.76873    1210.2336     262.7952            0    2336.7975   -3810.6481    -27.88909      36.6857      36.6857      36.6857            0            0            0   0.51199882 
267000 0.5119988242395689948 305.41112359203498272 310.46575397792997819 -382.88720254739399707 2593.6513852204598152 2210.7641826730700814 2434.316935613179794
267000 0.5119988242395689948 305.41112359203498272 310.46575397792997819 -382.88720254739399707 2593.6513852204598152 2210.7641826730700814 2434.316935613179794
  267000    49373.104    305.41112    310.46575    2593.6514    -382.8872    2210.7642    2434.3169   -895.15387    1984.8253   -2722.6944    876.45178    1195.6046    267.75091            0    2339.8072   -3812.3658    -27.88909      36.6857      36.6857      36.6857            0            0            0   0.51199882 
268000 0.5119988242395689948 301.0315310831550164 -891.77952503514097771 -374.12889223626797275 2556.4584498625099513 2182.3295576262398754 1540.1982910279900807
268000 0.5119988242395689948 301.0315310831550164 -891.77952503514097771 -374.12889223626797275 2556.4584498625099513 2182.3295576262398754 1540.1982910279900807
  268000    49373.104    301.03153   -891.77953    2556.4584   -374.12889    2182.3296    1540.1983   -879.38141    1943.6611   -2747.9247     876.1284    1244.6744    252.99297            0    2373.7958   -3812.2043    -27.88909      36.6857      36.6857      36.6857            0            0            0   0.51199882 
269000 0.5119988242395689948 311.71224253233299351 -1032.2364431417599917 -370.21670783439498109 2647.1625529727398316 2276.9458451383397914 1533.6777210609500344
269000 0.5119988242395689948 311.71224253233299351 -1032.2364431417599917 -370.21670783439498109 2647.1625529727398316 2276.9458451383397914 1533.6777210609500344
  269000    49373.104    311.71224   -1032.2364    2647.1626   -370.21671    2276.9458    1533.6777   -916.00123     1992.143   -2733.7316    881.10692    1225.5798    256.82825            0    2363.5149   -3809.8734    -27.88909      36.6857      36.6857      36.6857            0            0            0   0.51199882 
270000 0.5119988242395689948 299.86092948675701564 -977.5895985184699839 -412.57451130768998837 2546.5173173447101362 2133.942806037020091 1430.023474534980096
270000 0.5119988242395689948 299.86092948675701564 -977.5895985184699839 -412.57451130768998837 2546.5173173447101362 2133.942806037020091 1430.023474534980096
  270000    49373.104    299.86093    -977.5896    2546.5173   -412.57451    2133.9428    1430.0235   -906.43562     1985.702   -2730.7689    829.26312    1218.6817     270.2496            0    2318.1944   -3810.0353    -27.88909      36.6857      36.6857      36.6857            0            0            0   0.51199882 
271000 0.5119988242395689948 308.2808253300800061 -440.75061359566399233 -295.28638338632998739 2618.0218331612900329 2322.735449774960216 2005.3702918891199261
271000 0.5119988242395689948 308.2808253300800061 -440.75061359566399233 -295.28638338632998739 2618.0218331612900329 2322.735449774960216 2005.3702918891199261
  271000    49373.104    308.28083   -440.75061    2618.0218   -295.28638    2322.7354    2005.3703   -857.90824    1986.9551   -2682.1057    881.51901     1226.541    278.75926            0    2386.8193   -3811.1526    -27.88909      36.6857      36.6857      36.6857            0            0            0   0.51199882 
272000 0.5119988242395689948 306.10570029143701731 592.59794514646398511 -421.46007047006702351 2599.5499582565698802 2178.089887786500185 2604.7936395747301503
272000 0.5119988242395689948 306.10570029143701731 592.59794514646398511 -421.46007047006702351 2599.5499582565698802 2178.089887786500185 2604.7936395747301503
  272000    49373.104     306.1057    592.59795      2599.55   -421.46007    2178.0899    2604.7936    -887.6503    1972.3825   -2725.9363    824.11315    1215.2083    265.15475            0    2304.4762   -3810.6685    -27.88909      36.6857      36.6857      36.6857            0            0            0   0.51199882 
273000 0.5119988242395689948 310.53482591432998561 -904.19075205226795333 -319.82892018842500192 2637.1635450572798618 2317.3346248688599189 1666.2665788303800127
273000 0.5119988242395689948 310.53482591432998561 -904.19075205226795333 -319.82892018842500192 2637.1635450572798618 2317.3346248688599189 1666.2665788303800127
  273000    49373.104    310.53483   -904.19075    2637.1635   -319.82892    2317.3346    1666.2666   -838.36053    1965.4681   -2683.3758      875.956    1220.3672    267.22363            0    2363.5468   -3810.4834    -27.88909      36.6857      36.6857      36.6857            0            0            0   0.51199882 
274000 0.5119988242395689948 312.14397268313598488 674.13728897985299682 -324.19533344463900448 2650.828946948509838 2326.6336135038700377 2812.0502653570201801
274000 0.5119988242395689948 312.14397268313598488 674.13728897985299682 -324.19533344463900448 2650.828946948509838 2326.6336135038700377 2812.0502653570201801
  274000    49373.104    312.14397    674.13729    2650.8289   -324.19533    2326.6336    2812.0503   -843.62963    1985.4299   -2668.9424    859.51542    1216.7265    268.50516            0    2344.7471   -3810.7426    -27.88909      36.6857      36.6857      36.6857            0            0            0   0.51199882 
275000 0.5119988242395689948 311.46746811994501059 -40.913490714969796613 -314.30146454820601321 2645.0838484177397731 2330.782383869539899 2301.3223762373600039
275000 0.5119988242395689948 311.46746811994501059 -40.913490714969796613 -314.30146454820601321 2645.0838484177397731 2330.782383869539899 2301.3223762373600039
  275000    49373.104    311.46747   -40.913491    2645.0838   -314.30146    2330.7824    2301.3224     -849.577    1982.2295   -2679.2994    882.03416    1202.9035    280.06029            0     2364.998   -3811.9519    -27.88909      36.6857      36.6857      36.6857            0            0            0   0.51199882 
276000 0.5119988242395689948 308.07825480076201075 195.34725144555301313 -372.85935724154302306 2616.3015378171298835 2243.4421805755901005 2384.1031561595200401
276000 0.5119988242395689948 308.07825480076201075 195.34725144555301313 -372.85935724154302306 2616.3015378171298835 2243.4421805755901005 2384.1031561595200401
  276000    49373.104    308.07825    195.34725    2616.3015   -372.85936    2243.4422    2384.1032   -855.43914    1946.7196   -2720.7044    830.60099    1247.4558    269.78824            0     2347.845   -3811.9849    -27.88909      36.6857      36.6857      36.6857            0            0            0   0.51199882 
277000 0.5119988242395689948 313.87495661961997939 -1185.2960255674299788 -309.91357640642701199 2665.5290300098399712 2355.6154536034100602 1502.1358470139900874
277000 0.5119988242395689948 313.87495661961997939 -1185.2960255674299788 -309.91357640642701199 2665.5290300098399712 2355.6154536034100602 1502.1358470139900874
  277000    49373.104    313.87496    -1185.296     2665.529   -309.91358    2355.6155    1502.1358   -856.52113    1968.2481   -2701.3964    874.58241    1242.4441    274.45627            0    2391.4828   -3813.1233    -27.88909      36.6857      36.6857      36.6857            0            0            0   0.51199882 
278000 0.5119988242395689948 309.42610722487802377 591.50964796071900764 -324.44489671487400528 2627.7479424724901946 2303.3030457576101071 2729.2231625433601039
278000 0.5119988242395689948 309.42610722487802377 591.50964796071900764 -324.44489671487400528 2627.7479424724901946 2303.3030457576101071 2729.2231625433601039
  278000    49373.104    309.42611    591.50965    2627.7479    -324.4449     2303.303    2729.2232   -831.97258    1966.5634   -2680.4592    876.41488     1203.579    276.02036            0    2356.0143     -3815.05    -27.88909      36.6857      36.6857      36.6857            0            0            0   0.51199882 
279000 0.5119988242395689948 311.37499543632901577 -891.7571786949580428 -351.05075914441999885 2644.2985400729298817 2293.2477809285101102 1651.1326049483100178
279000 0.5119988242395689948 311.37499543632901577 -891.7571786949580428 -351.05075914441999885 2644.2985400729298817 2293.2477809285101102 1651.1326049483100178
  279000    49373.104      311.375   -891.75718    2644.2985   -351.05076    2293.2478    1651.1326   -866.33245    1948.4157   -2730.4228    884.22232    1222.2758    272.87399            0    2379.3721   -3812.5061    -27.88909      36.6857      36.6857      36.6857            0            0            0   0.51199882 
280000 0.5119988242395689948 325.44766703839400179 -72.43547235230920478 -445.11361944491397935 2763.8082807960799983 2318.6946613511599935 2266.5370592730000681
280000 0.5119988242395689948 325.44766703839400179 -72.43547235230920478 -445.11361944491397935 2763.8082807960799983 2318.6946613511599935 2266.5370592730000681
  280000    49373.104    325.44767   -72.435472    2763.8083   -445.11362    2318.6947    2266.5371    -891.6786    1950.9363   -2753.8557    834.09874      1204.09    270.55338            0    2308.7421   -3813.1134    -27.88909      36.6857      36.6857      36.6857            0            0            0   0.51199882 
  280486    49373.104    310.42542   -182.67667    2636.2344    -336.7018    2299.5326    2167.9952   -887.16358    1968.2745   -2730.1189    865.92879    1251.3387    276.14964            0    2393.4171   -3811.2298    -27.88909      36.6857      36.6857      36.6857            0            0            0   0.51199882 
Loop time of 74.6208 on 48 procs for 30000 steps with 2850 atoms

Performance: 34.736 ns/day, 0.691 hours/ns, 402.033 timesteps/s
46.1% CPU use with 48 MPI tasks x 1 OpenMP threads

MPI task timing breakdown:
Section |  min time  |  avg time  |  max time  |%varavg| %total
---------------------------------------------------------------
Pair    | 0.61566    | 13.026     | 27.256     | 202.4 | 17.46
Bond    | 0.08408    | 1.0253     | 2.0369     |  47.5 |  1.37
Kspace  | 10.265     | 24.037     | 37.153     | 148.6 | 32.21
Neigh   | 4.237      | 4.6773     | 5.0401     |  12.5 |  6.27
Comm    | 19.651     | 23.742     | 28.692     |  43.9 | 31.82
Output  | 0.14206    | 0.14229    | 0.14242    |   0.0 |  0.19
Modify  | 1.8946     | 4.9157     | 8.6183     |  71.2 |  6.59
Other   |            | 3.055      |            |       |  4.09

Nlocal:    59.375 ave 106 max 1 min
Histogram: 3 4 4 4 5 2 7 8 9 2
Nghost:    2683.54 ave 2765 max 2554 min
Histogram: 3 2 4 3 1 4 7 10 10 4
Neighs:    18182.5 ave 44449 max 75 min
Histogram: 7 6 4 4 10 5 4 7 0 1

Total # of neighbors = 872759
Ave neighs/atom = 306.231
Ave special neighs/atom = 8.73684
Neighbor list builds = 3232
Dangerous builds = 0

write_data      restart.${NAME}.final.data
write_data      restart.acetone_octanol_25p.final.data
Ewald initialization ...
  using 12-bit tables for long-range coulomb (src/kspace.cpp:332)
  G vector (1/distance) = 0.168295
  estimated absolute RMS force accuracy = 0.0454416
  estimated relative force accuracy = 0.000136846
  KSpace vectors: actual max1d max3d = 128 4 364
                  kxmax kymax kzmax  = 4 4 4
Total wall time: 0:10:44
