LAMMPS data file via write_data, version 3 Mar 2020, timestep = 280416

2000 atoms
4 atom types
1800 bonds
3 bond types
3000 angles
4 angle types
2400 dihedrals
2 dihedral types

0.0000000000000000e+00 3.6685699999999997e+01 xlo xhi
0.0000000000000000e+00 3.6685699999999997e+01 ylo yhi
0.0000000000000000e+00 3.6685699999999997e+01 zlo zhi

Masses

1 12.0108
2 12.0108
3 15.9994
4 1.00795

Pair Coeffs # lj/cut/coul/long

1 0.066 3.5
2 0.105 3.75
3 0.21 2.96
4 0.015 2.42

Bond Coeffs # harmonic

1 317 1.522
2 570 1.229
3 340 1.09

Angle Coeffs # harmonic

1 80 120.4
2 70 116
3 35 109.5
4 33 107.8

Dihedral Coeffs # opls

1 0 -0 0.275 -0
2 -0 -0 -0 -0

Atoms # full

341 35 1 -1.7999999999999999e-01 8.2875199996188786e-01 8.9118954337637168e-01 8.6660539381332331e+00 1 0 1
588 59 4 5.9999999999999998e-02 1.1065981788365693e+01 5.3047946809172881e+00 3.5955810037796714e+00 0 1 0
1534 154 1 -1.7999999999999999e-01 8.9089314598957596e+00 8.5198908915137039e+00 3.5781783253864607e+00 1 0 0
1526 153 4 5.9999999999999998e-02 8.4622188329790582e+00 7.0016096776083261e+00 6.6032092987397624e+00 1 0 0
490 49 4 5.9999999999999998e-02 6.2903760923656833e+00 5.0039416066042337e+00 1.4876361706471544e+00 0 1 1
600 60 4 5.9999999999999998e-02 1.8465452687856183e+00 2.0554790521240585e+00 4.1260130368741255e+00 1 1 1
1525 153 4 5.9999999999999998e-02 9.2067850434061373e+00 5.4318303487558115e+00 6.5114100522180935e+00 1 0 0
586 59 4 5.9999999999999998e-02 1.2122691332673590e+01 3.4217820540565489e+00 7.2650443776947453e+00 0 1 0
484 49 1 -1.7999999999999999e-01 6.6849022564252909e+00 5.5241062654677693e+00 2.4243015358251632e+00 0 1 1
33 4 3 -4.6999999999999997e-01 3.5884776842845389e-01 4.2669499089281748e+00 4.0880726376869720e+00 0 1 0
1269 127 4 5.9999999999999998e-02 2.9712143104336755e+00 5.5441112519993698e+00 7.3385202569067838e+00 0 0 1
1244 125 1 -1.7999999999999999e-01 9.4551273027280414e-01 3.6659522305182941e+00 8.2937206858841594e-01 1 0 1
1533 154 3 -4.6999999999999997e-01 1.1030558651937756e+01 8.6357742226769698e+00 2.4185485868767111e+00 1 0 0
599 60 4 5.9999999999999998e-02 2.9205913721501999e+00 1.2446984746054373e+00 5.2991980716812179e+00 1 1 1
1268 127 4 5.9999999999999998e-02 4.7254945638850696e+00 5.3988746385119599e+00 7.0975508117568928e+00 0 0 1
1538 154 4 5.9999999999999998e-02 8.4747467400008532e+00 8.9513575574622397e+00 4.5538923301830678e+00 1 0 0
1540 154 4 5.9999999999999998e-02 8.1376561361051110e+00 8.4841268050060172e+00 2.8683591953652945e+00 1 0 0
589 59 4 5.9999999999999998e-02 1.0710184031801774e+01 3.7685728857741458e+00 4.4374011071044865e+00 0 1 0
1270 127 4 5.9999999999999998e-02 3.7019894460770639e+00 4.7677721323311086e+00 5.9921004634467705e+00 0 0 1
584 59 1 -1.7999999999999999e-01 1.1486860452852026e+01 4.4941119502409217e+00 4.2892566397169132e+00 0 1 0
552 56 2 4.6999999999999997e-01 9.8282706711089975e+00 8.5565536406019438e-02 8.0965039115142545e+00 -1 0 1
382 39 2 4.6999999999999997e-01 2.8127538161855967e+00 8.3110161111022780e+00 2.3185423068211293e+00 -1 0 0
594 60 1 -1.7999999999999999e-01 2.9165170794864914e+00 1.8158382363772709e+00 4.3653992690021850e+00 1 1 1
482 49 2 4.6999999999999997e-01 5.8120674300447082e+00 5.3085152250705336e+00 3.6407683489876912e+00 0 1 1
386 39 4 5.9999999999999998e-02 2.5934379167859860e+00 7.3464710579828782e+00 4.1443523572644612e+00 -1 0 0
582 59 2 4.6999999999999997e-01 1.1951789662288395e+01 4.8409602631859707e+00 5.6877459997705850e+00 0 1 0
1527 153 4 5.9999999999999998e-02 7.6220861605232848e+00 5.4058533277221539e+00 6.2229824404337926e+00 1 0 0
1549 155 4 5.9999999999999998e-02 9.4484632393566077e+00 5.9690487928570830e+00 6.8591592563907833e-01 1 0 -1
559 56 4 5.9999999999999998e-02 8.4194811666392244e+00 1.2188767463695422e+00 6.9655772556628790e+00 -1 0 1
345 35 4 5.9999999999999998e-02 1.3286114416468231e+00 1.0245279370004592e+00 7.7060789712291893e+00 1 0 1
583 59 3 -4.6999999999999997e-01 1.1905026140437919e+01 5.9896927754881357e+00 6.0719262703098291e+00 0 1 0
1521 153 1 -1.7999999999999999e-01 8.3163164029147207e+00 5.9086856367579745e+00 6.8159255895798072e+00 1 0 0
384 39 1 -1.7999999999999999e-01 4.0415542234248729e+00 9.0360971535403465e+00 2.5565896081437653e+00 -1 0 0
1263 127 3 -4.6999999999999997e-01 3.5909508190922081e+00 2.5555231668723057e+00 7.3261816774530608e+00 0 0 1
383 39 3 -4.6999999999999997e-01 2.8481568375121933e+00 7.5234431199250347e+00 1.4300867759656462e+00 -1 0 0
390 39 4 5.9999999999999998e-02 4.8080134494532478e+00 8.5050792341251142e+00 2.8983268176179497e+00 -1 0 0
489 49 4 5.9999999999999998e-02 6.6532603294330146e+00 6.5935644884666766e+00 2.1379964461787480e+00 0 1 1
598 60 4 5.9999999999999998e-02 3.3477516841604609e+00 2.7905058261193800e+00 4.5953921841651733e+00 1 1 1
481 49 1 -1.7999999999999999e-01 6.2826649639025076e+00 4.0292831708169592e+00 4.3615790248793456e+00 0 1 1
1264 127 1 -1.7999999999999999e-01 3.8406300089598631e+00 4.8973069616960760e+00 7.0833075799209997e+00 0 0 1
488 49 4 5.9999999999999998e-02 7.6495227169246034e+00 5.1463515786765051e+00 2.6883212028493615e+00 0 1 1
483 49 3 -4.6999999999999997e-01 5.3371834903889468e+00 6.2242879532118529e+00 4.3099094756186833e+00 0 1 1
487 49 4 5.9999999999999998e-02 6.2466753601097000e+00 3.3113152686324065e+00 3.5819883933709948e+00 0 1 1
387 39 4 5.9999999999999998e-02 1.1492902899315947e+00 7.1998193214391311e+00 3.2785319153700514e+00 -1 0 0
592 60 2 4.6999999999999997e-01 3.6063312876284983e+00 1.4040489991574467e+00 3.0116233747072876e+00 1 1 1
554 56 1 -1.7999999999999999e-01 8.7316506079204004e+00 2.1427137119283926e-01 7.1406882936868774e+00 -1 0 1
1539 154 4 5.9999999999999998e-02 9.1145704957097937e+00 7.5182271677149819e+00 3.8156915021035691e+00 1 0 0
1523 153 3 -4.6999999999999997e-01 7.2272858714483652e+00 4.6127079431723095e+00 8.4668966578717892e+00 1 0 0
1248 125 4 5.9999999999999998e-02 3.8330888937531254e-01 3.0907182187684494e+00 1.5237805118323768e+00 1 0 1
593 60 3 -4.6999999999999997e-01 3.6317254334360705e+00 2.1521704818642085e+00 2.0584619014041934e+00 1 1 1
381 39 1 -1.7999999999999999e-01 1.9402151358729280e+00 7.9374617407277084e+00 3.4815273819396264e+00 -1 0 0
485 49 4 5.9999999999999998e-02 5.7301851344047359e+00 3.8220310730028890e+00 5.2335803730894161e+00 0 1 1
1249 125 4 5.9999999999999998e-02 1.7180807259817634e+00 4.3940675818105275e+00 1.2339579970460055e+00 1 0 1
385 39 4 5.9999999999999998e-02 1.5022680974060225e+00 8.7236758709214897e+00 4.0415474660239896e+00 -1 0 0
1262 127 2 4.6999999999999997e-01 3.9354990343501064e+00 3.6146077672692472e+00 7.8357818911969712e+00 0 0 1
1522 153 2 4.6999999999999997e-01 7.9764961193392176e+00 5.5862710763965646e+00 8.2559368341760120e+00 1 0 0
486 49 4 5.9999999999999998e-02 7.3378242666628841e+00 4.2257526583106566e+00 4.6384402656709067e+00 0 1 1
1528 153 4 5.9999999999999998e-02 9.1864922085373504e+00 7.2567536294370756e+00 8.8554408922368921e+00 1 0 0
1250 125 4 5.9999999999999998e-02 1.5016718808024629e+00 3.0926503937736776e+00 7.7688935879348733e-02 1 0 1
1529 153 4 5.9999999999999998e-02 8.4097380732778255e+00 6.3290103535593563e+00 1.0280322095767177e+01 1 0 0
1261 127 1 -1.7999999999999999e-01 4.2520376544887357e+00 3.7504051744497349e+00 9.3083335122527338e+00 0 0 1
556 56 4 5.9999999999999998e-02 1.0429366847928231e+01 9.0688222666918983e-01 1.0046091038698160e+01 -1 0 1
551 56 1 -1.7999999999999999e-01 9.5497930405052589e+00 7.7772270986414938e-01 9.4523852474629386e+00 -1 0 1
1530 153 4 5.9999999999999998e-02 7.4121147868794139e+00 7.2633653577935817e+00 9.3044566242159110e+00 1 0 0
1524 153 1 -1.7999999999999999e-01 8.2916056402773695e+00 6.6888328794839484e+00 9.2383427738482595e+00 1 0 0
1265 127 4 5.9999999999999998e-02 4.4153785399454977e+00 2.7256431402071075e+00 9.7016779827567046e+00 0 0 1
1267 127 4 5.9999999999999998e-02 5.1661470476764224e+00 4.2321639776169890e+00 9.6190039081893115e+00 0 0 1
1266 127 4 5.9999999999999998e-02 3.4260702738017685e+00 4.1009415863192800e+00 9.9102392149367446e+00 0 0 1
277 28 4 5.9999999999999998e-02 6.7625937131085347e+00 1.1712704593370528e-01 1.0005416880099224e+01 1 1 1
557 56 4 5.9999999999999998e-02 8.8046903662418323e+00 1.5097883061298045e-01 1.0035867695896712e+01 -1 0 1
346 35 4 5.9999999999999998e-02 1.3386875414267001e+00 1.5006985889322024e+00 9.3190754411912096e+00 1 0 1
555 56 4 5.9999999999999998e-02 9.1831180666076513e+00 1.7901047368153997e+00 9.3601013668109712e+00 -1 0 1
889 89 4 5.9999999999999998e-02 5.9629783589494456e-01 7.9093422677414740e+00 2.6805853254637924e+01 1 0 0
300 30 4 5.9999999999999998e-02 1.8595447551769504e+00 2.2847328540715637e+00 2.7430179584976738e+01 1 0 0
1541 155 1 -1.7999999999999999e-01 1.0182033275183079e+01 4.6822284699575629e+00 3.4697616228117653e+01 1 0 -2
1953 196 3 -4.6999999999999997e-01 5.4541451667979644e+00 8.8794761831848330e+00 3.5736969057856435e+01 2 -1 -1
1545 155 4 5.9999999999999998e-02 1.0913317359680340e+01 5.2860876649792576e+00 3.4038207964172081e+01 1 0 -2
1246 125 4 5.9999999999999998e-02 5.4608801605930779e-01 5.4267752458198286e+00 3.4966328757627387e+01 1 0 0
1386 139 4 5.9999999999999998e-02 5.7638210660450018e-01 7.5758049768533828e+00 3.0240735849000064e+01 0 0 0
1951 196 1 -1.7999999999999999e-01 4.9331204062054148e+00 8.2626539678083581e+00 3.3457965811332947e+01 2 -1 -1
1631 164 1 -1.7999999999999999e-01 6.1642011615465533e+00 2.4858450597215453e+00 3.3560705188764516e+01 0 1 0
1544 155 1 -1.7999999999999999e-01 9.6039797074924422e+00 6.5253833848320220e+00 3.6448039856018674e+01 1 0 -2
294 30 1 -1.7999999999999999e-01 2.1301257384881827e+00 2.3541206477900163e+00 2.8464454381184108e+01 1 0 0
893 90 3 -4.6999999999999997e-01 9.7186695767688469e-01 1.9120560507179711e+00 3.4406749741677785e+01 1 1 -1
571 58 1 -1.7999999999999999e-01 8.7654105269755060e+00 7.9192140101457653e+00 3.0858443233794524e+01 1 0 0
298 30 4 5.9999999999999998e-02 1.2794966541597259e+00 2.1904006427173690e+00 2.9032811929669979e+01 1 0 0
1387 139 4 5.9999999999999998e-02 1.6601154369844993e+00 8.6203933913137956e+00 2.9422491074248871e+01 0 0 0
1543 155 3 -4.6999999999999997e-01 8.0186650449295787e+00 5.8901095579442000e+00 3.4735368194380435e+01 1 0 -2
1956 196 4 5.9999999999999998e-02 4.0296405782526534e+00 8.0112291770846795e+00 3.2878254794905530e+01 2 -1 -1
894 90 1 -1.7999999999999999e-01 8.3811524009421290e-01 9.8217429139852430e-02 3.2784171476002655e+01 1 1 -1
299 30 4 5.9999999999999998e-02 2.9021702045715574e+00 1.5861569866804728e+00 2.8577717222285319e+01 1 0 0
1634 164 1 -1.7999999999999999e-01 4.4138592282153102e+00 2.8539641686844459e+00 3.5363672700781919e+01 0 1 0
572 58 2 4.6999999999999997e-01 8.1166449242474030e+00 8.7808065515300324e+00 3.1978540919496094e+01 1 0 0
296 30 4 5.9999999999999998e-02 3.4285647281578431e+00 3.1879534564505438e+00 3.0628689259533967e+01 1 0 0
1382 139 2 4.6999999999999997e-01 1.0663006589963202e+00 9.1535802444573857e+00 3.1592257399056557e+01 0 0 0
1542 155 2 4.6999999999999997e-01 9.0941564901346403e+00 5.6274475609011940e+00 3.5274852462370987e+01 1 0 -2
577 58 4 5.9999999999999998e-02 8.5902748332937051e+00 6.9275416286127456e+00 3.1087551550445347e+01 1 0 0
1137 114 4 5.9999999999999998e-02 1.1896407615019694e+01 8.3998912041806992e+00 3.3125528336337879e+01 0 0 0
1636 164 4 5.9999999999999998e-02 6.5348297042498968e+00 2.9876980360181231e+00 3.2648705955463079e+01 0 1 0
1635 164 4 5.9999999999999998e-02 7.0006873544320136e+00 2.4271318917523059e+00 3.4298480915298654e+01 0 1 0
1952 196 2 4.6999999999999997e-01 4.5669910838350676e+00 8.7150895714941381e+00 3.4866128690327344e+01 2 -1 -1
1241 125 1 -1.7999999999999999e-01 1.7998323532587565e-01 5.7022218698311153e+00 3.5959392931243549e+01 1 0 0
576 58 4 5.9999999999999998e-02 8.4571568712427325e+00 8.0726690923747153e+00 2.9760944534520057e+01 1 0 0
895 90 4 5.9999999999999998e-02 8.9352955100471543e-01 2.3132418220215873e+00 3.1193177022531430e+01 1 1 -1
295 30 4 5.9999999999999998e-02 4.6383115479390975e+00 3.6351502457743194e+00 2.9478534805115483e+01 1 0 0
891 90 1 -1.7999999999999999e-01 1.0809461429686746e+00 2.7113776084526706e+00 3.2174893600983289e+01 1 1 -1
1640 164 4 5.9999999999999998e-02 3.6210861400155476e+00 3.4803362156024327e+00 3.5697760603610071e+01 0 1 0
1226 123 4 5.9999999999999998e-02 3.4512410863795591e+00 1.2119946518712882e-01 3.4276581261329696e+01 0 1 -1
1639 164 4 5.9999999999999998e-02 4.0495176721827626e+00 1.8099072055067156e+00 3.5371543443841055e+01 0 1 0
1383 139 3 -4.6999999999999997e-01 1.3089856890621128e+00 8.3059341940843705e+00 3.2438856573616086e+01 0 0 0
1546 155 4 5.9999999999999998e-02 9.7342318375337573e+00 3.8503962881367042e+00 3.4167382241551451e+01 1 0 -2
1381 139 1 -1.7999999999999999e-01 8.4395761293980820e-01 8.6125518766068545e+00 3.0177657542155416e+01 0 0 0
1637 164 4 5.9999999999999998e-02 6.0460876993441026e+00 1.4362570256019398e+00 3.3332752549736973e+01 0 1 0
1633 164 3 -4.6999999999999997e-01 4.2274528283146120e+00 3.7234404733837088e+00 3.3159928199967617e+01 0 1 0
1638 164 4 5.9999999999999998e-02 5.1389578289618898e+00 3.0391010443853688e+00 3.6238159139312330e+01 0 1 0
291 30 1 -1.7999999999999999e-01 3.6923633766745785e+00 3.9294940616514604e+00 2.9839319871836551e+01 1 0 0
1632 164 2 4.6999999999999997e-01 4.9845299023473446e+00 3.2578033419311914e+00 3.4014199948332134e+01 0 1 0
892 90 2 4.6999999999999997e-01 8.8256896926860873e-01 1.5797021255322066e+00 3.3229238807046741e+01 1 1 -1
580 58 4 5.9999999999999998e-02 9.6587510612736391e+00 8.1539236068735601e+00 3.3434066252349062e+01 1 0 0
1958 196 4 5.9999999999999998e-02 2.4825999660055724e+00 8.3262996271382992e+00 3.5081499197883844e+01 2 -1 -1
1957 196 4 5.9999999999999998e-02 5.4074691076131192e+00 7.3161967557375798e+00 3.3586545031699877e+01 2 -1 -1
723 73 3 -4.6999999999999997e-01 5.7792183422771544e+00 1.1908645093948704e+00 2.9997789219023677e+01 -1 1 0
574 58 1 -1.7999999999999999e-01 8.9754837084936963e+00 9.0216208960686828e+00 3.3274002924405160e+01 1 0 0
292 30 2 4.6999999999999997e-01 2.5992266655364640e+00 3.8017368833528122e+00 2.8809914463710793e+01 1 0 0
297 30 4 5.9999999999999998e-02 3.6572541043734019e+00 4.9502401019824109e+00 3.0333849476117045e+01 1 0 0
1547 155 4 5.9999999999999998e-02 1.0763900556755798e+01 4.4013951243138463e+00 3.5581534064176125e+01 1 0 -2
293 30 3 -4.6999999999999997e-01 2.0543264452474097e+00 4.8076619311763142e+00 2.8314116748914024e+01 1 0 0
896 90 4 5.9999999999999998e-02 2.0548729706886095e+00 3.1280497947953769e+00 3.2305077728613547e+01 1 1 -1
1548 155 4 5.9999999999999998e-02 1.0670196436289741e+01 6.6276343438556085e+00 3.6448926835458614e+01 1 0 -2
575 58 4 5.9999999999999998e-02 9.8321163790969877e+00 8.1378464406102040e+00 3.0932785544990946e+01 1 0 0
1550 155 4 5.9999999999999998e-02 9.0157954376379106e+00 7.4334819213127972e+00 3.6506558358183007e+01 1 0 -2
646 65 4 5.9999999999999998e-02 1.1880309670894402e+01 8.8692280195102491e+00 2.8019151527636463e+01 1 0 -1
1955 196 4 5.9999999999999998e-02 5.5631086087884940e+00 8.9291000097447224e+00 3.2942272507898174e+01 2 -1 -1
897 90 4 5.9999999999999998e-02 4.0408331821328242e-01 3.4601172985876487e+00 3.2509471281913314e+01 1 1 -1
727 73 4 5.9999999999999998e-02 7.3634128584148577e+00 8.6170157746252127e-02 2.8328196160447355e+01 -1 1 0
1247 125 4 5.9999999999999998e-02 8.7386130285574970e-01 6.3501073665195982e+00 3.6350522429628882e+01 1 0 0
1385 139 4 5.9999999999999998e-02 4.2296928357223436e-02 9.0507261691860901e+00 2.9654053847108532e+01 0 0 0
899 90 4 5.9999999999999998e-02 1.3604257828895803e+00 4.2923506476918859e-02 3.1851431271493130e+01 1 1 -1
578 58 4 5.9999999999999998e-02 8.2908817285930851e+00 9.1376168275338365e+00 3.4179923367599926e+01 1 0 0
1954 196 1 -1.7999999999999999e-01 3.1422717430867646e+00 9.1627178993855161e+00 3.5143790166781535e+01 2 -1 -1
609 61 4 5.9999999999999998e-02 1.2094074722826869e+01 1.4243844076605935e+01 6.0286316950689649e+00 1 0 1
742 75 2 4.6999999999999997e-01 6.6052808699693060e+00 1.4950766820827885e+01 3.2585558619084170e+00 0 1 1
44 5 1 -1.7999999999999999e-01 2.1629672831111524e+00 1.4416259602178240e+01 1.4391023763852806e+00 0 -1 1
604 61 1 -1.7999999999999999e-01 1.1675002601625904e+01 1.5186594526952440e+01 6.4421425632778364e+00 1 0 1
1887 189 4 5.9999999999999998e-02 6.2973539836716741e+00 1.2307931537106210e+01 6.1029396105120277e+00 0 1 0
862 87 2 4.6999999999999997e-01 9.3443996680444723e+00 1.2145110537624708e+01 7.0161869405316351e+00 0 0 0
1889 189 4 5.9999999999999998e-02 6.6064287693271284e+00 1.0437148090007256e+01 7.5397010323849125e+00 0 1 0
868 87 4 5.9999999999999998e-02 9.0595479607635578e+00 1.3919896441807913e+01 8.2308339661469816e+00 0 0 0
741 75 1 -1.7999999999999999e-01 7.4762257786069313e+00 1.3681178542410789e+01 3.0506499368037385e+00 0 1 1
1888 189 4 5.9999999999999998e-02 5.1297770220783558e+00 1.0912291826775730e+01 8.5714873212323983e+00 0 1 0
748 75 4 5.9999999999999998e-02 7.6747465917581827e+00 1.5823379709893983e+01 1.6476731308161749e+00 0 1 1
43 5 3 -4.6999999999999997e-01 8.6863443665460816e-01 1.4025564922535745e+01 3.4280377269313149e+00 0 -1 1
1791 180 1 -1.7999999999999999e-01 3.1625837163956705e+00 1.8216604517900812e+01 1.9684468021691204e+00 -1 1 0
871 88 1 -1.7999999999999999e-01 5.5016922550277600e+00 1.7293613052794722e+01 6.3453343553310537e+00 1 1 1
1535 154 4 5.9999999999999998e-02 1.0493920741607274e+01 1.1176169634157661e+01 2.2816164698997454e+00 1 0 0
743 75 3 -4.6999999999999997e-01 5.3932317124954841e+00 1.4839410636441540e+01 3.2873221019184795e+00 0 1 1
745 75 4 5.9999999999999998e-02 8.5170603199898398e+00 1.3871404236454190e+01 3.0009088449501884e+00 0 1 1
749 75 4 5.9999999999999998e-02 7.8959708918219285e+00 1.6571041233626968e+01 3.2219459798578565e+00 0 1 1
607 61 4 5.9999999999999998e-02 9.6609913388786683e+00 1.7068685735335116e+01 6.8245870955182051e+00 1 0 1
41 5 1 -1.7999999999999999e-01 2.6381541817491807e+00 1.2446938624732949e+01 3.0273739531442545e+00 0 -1 1
47 5 4 5.9999999999999998e-02 2.4501152188936484e+00 1.1567543130523616e+01 2.4576387843444976e+00 0 -1 1
863 87 3 -4.6999999999999997e-01 8.9094279325485353e+00 1.1580186629988718e+01 6.0369980172315394e+00 0 0 0
1874 188 1 -1.7999999999999999e-01 1.6107852814311756e+00 1.3463980340227456e+01 8.0364584339179359e+00 1 1 0
744 75 1 -1.7999999999999999e-01 7.1854227595342337e+00 1.6160846288839146e+01 2.5388333236512768e+00 0 1 1
1531 154 1 -1.7999999999999999e-01 9.6029869901812894e+00 1.0565206838873911e+01 2.4707707582571206e+00 1 0 0
49 5 4 5.9999999999999998e-02 2.9031320729290959e+00 1.5111883589714283e+01 1.7568897776432137e+00 0 -1 1
861 87 1 -1.7999999999999999e-01 1.0616963721471757e+01 1.1700750473566266e+01 7.5912714821322966e+00 0 0 0
196 20 4 5.9999999999999998e-02 7.7910381561979225e+00 1.8057409540517241e+01 8.7322046931972928e+00 0 1 0
867 87 4 5.9999999999999998e-02 1.0521654761597015e+01 1.0629574110406891e+01 7.7664895623822403e+00 0 0 0
875 88 4 5.9999999999999998e-02 5.5559296615776894e+00 1.7586443166031977e+01 7.4123548053888717e+00 1 1 1
1882 189 2 4.6999999999999997e-01 4.7869092152982518e+00 1.0781692742842834e+01 6.4575621713120537e+00 0 1 0
606 61 4 5.9999999999999998e-02 1.0840662675794899e+01 1.7847424803986680e+01 5.5892168090049656e+00 1 0 1
389 39 4 5.9999999999999998e-02 4.2550966908421346e+00 9.5908536782443363e+00 1.6648418983926647e+00 -1 0 0
864 87 1 -1.7999999999999999e-01 8.4637840716017347e+00 1.3104755967279726e+01 7.8140461106967507e+00 0 0 0
876 88 4 5.9999999999999998e-02 6.2211113125858040e+00 1.6459006991852824e+01 6.2083905590338224e+00 1 1 1
388 39 4 5.9999999999999998e-02 3.9625424784468795e+00 9.7996200564578171e+00 3.3829016082093730e+00 -1 0 0
42 5 2 4.6999999999999997e-01 1.6641414920507733e+00 1.3585852120652087e+01 2.6095172265766915e+00 0 -1 1
610 61 4 5.9999999999999998e-02 1.1119477184546126e+01 1.4916057638905119e+01 7.3871115160625180e+00 1 0 1
1883 189 3 -4.6999999999999997e-01 3.6153585636392052e+00 1.0492219713907224e+01 6.4629506172836315e+00 0 1 0
191 20 1 -1.7999999999999999e-01 7.8692073582343607e+00 1.7002122595635882e+01 8.7111088489240878e+00 0 1 0
746 75 4 5.9999999999999998e-02 7.1768967827146106e+00 1.3186878995173968e+01 2.1148992761932957e+00 0 1 1
865 87 4 5.9999999999999998e-02 1.0884804037151994e+01 1.2292297910212319e+01 8.4573273774909321e+00 0 0 0
50 5 4 5.9999999999999998e-02 1.4002231100111471e+00 1.5157434683242435e+01 1.0889884865088804e+00 0 -1 1
869 87 4 5.9999999999999998e-02 7.9435081965335979e+00 1.2678114901272775e+01 8.6401997074317212e+00 0 0 0
48 5 4 5.9999999999999998e-02 2.5221662604490431e+00 1.3935241504854298e+01 6.1782271231832497e-01 0 -1 1
603 61 3 -4.6999999999999997e-01 9.9375117512513480e+00 1.4943667130316303e+01 4.7361578480434536e+00 1 0 1
870 87 4 5.9999999999999998e-02 7.7427112242337754e+00 1.3498534153645400e+01 7.0349340939627787e+00 0 0 0
747 75 4 5.9999999999999998e-02 7.2446202389519891e+00 1.2984405706163667e+01 3.8874013605423459e+00 0 1 1
1885 189 4 5.9999999999999998e-02 4.7179366551729487e+00 1.2954449348701635e+01 6.0433223736262756e+00 0 1 0
605 61 4 5.9999999999999998e-02 9.2004744364523656e+00 1.7171509022793703e+01 5.1752691873214678e+00 1 0 1
197 20 4 5.9999999999999998e-02 7.5575291675077629e+00 1.6446398709205539e+01 7.8149204052880918e+00 0 1 0
1881 189 1 -1.7999999999999999e-01 5.2630793071816688e+00 1.2067019827812761e+01 5.8083221500351714e+00 0 1 0
46 5 4 5.9999999999999998e-02 3.6913808527939400e+00 1.2753059102133291e+01 2.8779642103456671e+00 0 -1 1
601 61 1 -1.7999999999999999e-01 1.0103734859422781e+01 1.7060480628634021e+01 5.8054490470564755e+00 1 0 1
877 88 4 5.9999999999999998e-02 4.4307989048989045e+00 1.6958823847678662e+01 6.1664509401634913e+00 1 1 1
1878 188 4 5.9999999999999998e-02 1.6613072009973857e+00 1.3863653896662411e+01 7.0457883169301612e+00 1 1 0
1795 180 4 5.9999999999999998e-02 3.6310783798633079e+00 1.7229632267939543e+01 1.7137545416065096e+00 -1 1 0
45 5 4 5.9999999999999998e-02 2.5092993254750819e+00 1.2045070797863634e+01 3.9876121444637671e+00 0 -1 1
1796 180 4 5.9999999999999998e-02 2.0901214763751077e+00 1.8189897240980955e+01 2.1083640581873873e+00 -1 1 0
1165 117 4 5.9999999999999998e-02 3.7542716488365480e-01 9.4581964762019286e+00 9.5478673433289762e-01 0 1 0
1872 188 2 4.6999999999999997e-01 2.6551088416012308e-01 1.3790491518458234e+01 8.5652210531672068e+00 1 1 0
140 14 4 5.9999999999999998e-02 4.5941618986010830e+00 1.2727231015473414e+01 2.4817804508918026e-01 0 0 1
1884 189 1 -1.7999999999999999e-01 5.5147665137552968e+00 1.0364491159585944e+01 7.6770469949137770e+00 0 1 0
1886 189 4 5.9999999999999998e-02 5.2484385003995673e+00 1.2007815184235213e+01 4.7628213060082363e+00 0 1 0
602 61 2 4.6999999999999997e-01 1.0627509855885835e+01 1.5750198736587807e+01 5.4438013335324653e+00 1 0 1
1879 188 4 5.9999999999999998e-02 1.8136688923814928e+00 1.2390738125880045e+01 7.9838337209446060e+00 1 1 0
866 87 4 5.9999999999999998e-02 1.1356003533766163e+01 1.1773094665478128e+01 6.7187135022476383e+00 0 0 0
750 75 4 5.9999999999999998e-02 6.5023170598219489e+00 1.6911484307712634e+01 2.3192088923357059e+00 0 1 1
1536 154 4 5.9999999999999998e-02 9.1193606186865832e+00 1.1110585017501705e+01 3.2876866861094816e+00 1 0 0
1537 154 4 5.9999999999999998e-02 9.0203341090924720e+00 1.0562162072408329e+01 1.6348690380121831e+00 1 0 0
139 14 4 5.9999999999999998e-02 5.9747862213669256e+00 1.1729288778721937e+01 4.3617810487904674e-01 0 0 1
1915 192 4 5.9999999999999998e-02 3.3525267541711772e+00 1.6184778060436653e+01 8.4508621592467730e+00 0 0 0
1890 189 4 5.9999999999999998e-02 5.2645023582434858e+00 9.3128669099899017e+00 7.8418332588439164e+00 0 1 0
1532 154 2 4.6999999999999997e-01 1.0108933559497965e+01 9.2257067743683159e+00 2.9817987773406665e+00 1 0 0
266 27 4 5.9999999999999998e-02 1.2157217344177882e+01 1.1790304366337129e+01 3.7680750157785607e+00 1 0 0
1880 188 4 5.9999999999999998e-02 2.4305997748406671e+00 1.3896072875913601e+01 8.6403253293255506e+00 1 1 0
195 20 4 5.9999999999999998e-02 8.9739940108028424e+00 1.6686745366177067e+01 8.9157815448902138e+00 0 1 0
138 14 4 5.9999999999999998e-02 6.2471883999222229e+00 1.3446869410938968e+01 9.9901263360514539e-02 0 0 1
940 94 4 5.9999999999999998e-02 9.4120704093997585e+00 1.3459699781144582e+01 1.4921632218819767e+01 0 0 1
939 94 4 5.9999999999999998e-02 8.4083911832969296e+00 1.4316761527931273e+01 1.6319136062159888e+01 0 0 1
1916 192 4 5.9999999999999998e-02 2.2539807873377931e+00 1.6130374807563044e+01 9.8566901151280106e+00 0 0 0
933 94 3 -4.6999999999999997e-01 7.6744297331347777e+00 1.5796135378810668e+01 1.4191423251102464e+01 0 0 1
1917 192 4 5.9999999999999998e-02 4.0177810372848137e+00 1.5965118932374970e+01 1.0059448089114232e+01 0 0 0
192 20 2 4.6999999999999997e-01 7.0233118300743893e+00 1.6517159100054197e+01 9.8983090256099988e+00 0 1 0
937 94 4 5.9999999999999998e-02 7.7650940679760350e+00 1.3806757552222836e+01 1.2360680244605389e+01 0 0 1
1912 192 2 4.6999999999999997e-01 3.2752482165256183e+00 1.8018822753050316e+01 9.6283823207877681e+00 0 0 0
194 20 1 -1.7999999999999999e-01 7.1412214269295458e+00 1.7218083468353548e+01 1.1299577303035315e+01 0 1 0
1911 192 1 -1.7999999999999999e-01 3.1892632189727088e+00 1.6484655271793091e+01 9.4911059172285608e+00 0 0 0
931 94 1 -1.7999999999999999e-01 6.9063311249937129e+00 1.3735372229314093e+01 1.3163660173144654e+01 0 0 1
932 94 2 4.6999999999999997e-01 7.5069038759598810e+00 1.4575160073868792e+01 1.4324140044115854e+01 0 0 1
903 91 3 -4.6999999999999997e-01 1.2100864730897152e+01 1.5536623285374063e+01 9.6142393152197485e+00 1 1 0
938 94 4 5.9999999999999998e-02 7.8334793123456583e+00 1.2791592608157567e+01 1.5646289801079767e+01 0 0 1
908 91 4 5.9999999999999998e-02 1.0892248866366554e+01 1.8207902159286075e+01 1.0919404569763358e+01 1 1 0
193 20 3 -4.6999999999999997e-01 6.4775419348485723e+00 1.5435686375935415e+01 9.8861337145261654e+00 0 1 0
935 94 4 5.9999999999999998e-02 6.0760605017367562e+00 1.4272136087036246e+01 1.2717804585947297e+01 0 0 1
936 94 4 5.9999999999999998e-02 6.7337085509245638e+00 1.2682196669551860e+01 1.3444177619745025e+01 0 0 1
934 94 1 -1.7999999999999999e-01 8.3667041789915899e+00 1.3741023381079852e+01 1.5335681031104997e+01 0 0 1
198 20 4 5.9999999999999998e-02 6.2622666075972733e+00 1.6876139162169721e+01 1.1942723668632222e+01 0 1 0
1727 173 4 5.9999999999999998e-02 8.9463614051383686e+00 1.7760430082572810e+01 1.5537204273993527e+01 0 -1 0
199 20 4 5.9999999999999998e-02 7.1519333737119046e+00 1.8314477173592270e+01 1.1282958947669400e+01 0 1 0
1725 173 4 5.9999999999999998e-02 7.3002637112282889e+00 1.7859583570448102e+01 1.5446162683647358e+01 0 -1 0
910 91 4 5.9999999999999998e-02 1.0161015175230409e+01 1.6721037626086620e+01 1.0902305090308662e+01 1 1 0
904 91 1 -1.7999999999999999e-01 1.1101150220231906e+01 1.7136107596557189e+01 1.1084374228392432e+01 1 1 0
902 91 2 4.6999999999999997e-01 1.2113746701286734e+01 1.6698156467589023e+01 1.0040269486321842e+01 1 1 0
1920 192 4 5.9999999999999998e-02 3.5862189197397196e+00 1.7863214859499308e+01 1.1656354568319458e+01 0 0 0
1873 188 3 -4.6999999999999997e-01 1.1104439995808087e-01 1.4502117208775990e+01 9.5393669818761317e+00 1 1 0
200 20 4 5.9999999999999998e-02 8.0933306629545498e+00 1.6868878154251902e+01 1.1812676614094304e+01 0 1 0
909 91 4 5.9999999999999998e-02 1.1438488165411840e+01 1.6918504771798247e+01 1.2110500445405172e+01 1 1 0
1941 195 1 -1.7999999999999999e-01 7.3717748531671647e+00 1.7994671125954635e+01 2.7364122979812468e+01 1 -1 0
1463 147 3 -4.6999999999999997e-01 2.1265278891882109e+00 1.4156762364435197e+01 2.6159437074340115e+01 0 -1 -1
1462 147 2 4.6999999999999997e-01 1.1959346282382912e+00 1.3892221474747725e+01 2.6904447948057559e+01 0 -1 -1
1470 147 4 5.9999999999999998e-02 1.6360610222235863e+00 1.1666439110020706e+01 2.7215274757710649e+01 0 -1 -1
1464 147 1 -1.7999999999999999e-01 8.5975383597554977e-01 1.2446438899257320e+01 2.7346754758230063e+01 0 -1 -1
1946 195 4 5.9999999999999998e-02 7.4607189254724267e+00 1.7689457334164342e+01 2.6357333094772940e+01 1 -1 0
1466 147 4 5.9999999999999998e-02 4.6662648787365263e-01 1.6028547754660426e+01 2.7218635543607363e+01 0 -1 -1
1461 147 1 -1.7999999999999999e-01 2.6460421863678540e-01 1.4951283017606382e+01 2.7453123260397852e+01 0 -1 -1
733 74 3 -4.6999999999999997e-01 6.3468810172069734e+00 1.3929586440833758e+01 3.0736306891205686e+01 1 0 0
736 74 4 5.9999999999999998e-02 7.5016330893938763e+00 1.3666289386421406e+01 2.8491422215053646e+01 1 0 0
1376 138 4 5.9999999999999998e-02 4.7407703447477187e+00 1.5772334659457181e+01 3.2773407388632187e+01 0 0 0
1389 139 4 5.9999999999999998e-02 1.5768571514912526e+00 1.1242207636767498e+01 3.2536116637392276e+01 0 0 0
731 74 1 -1.7999999999999999e-01 7.3406126613388096e+00 1.2691011015809000e+01 2.8991780640915799e+01 1 0 0
136 14 4 5.9999999999999998e-02 7.2277031086956649e+00 1.1218328970552836e+01 3.5137359500784193e+01 0 0 0
1960 196 4 5.9999999999999998e-02 3.0674531638701863e+00 9.6050439741471489e+00 3.6157026222829082e+01 2 -1 -1
135 14 4 5.9999999999999998e-02 6.5715896186978160e+00 1.1295723069842330e+01 3.3432252282029062e+01 0 0 0
1312 132 2 4.6999999999999997e-01 9.1877206286663089e+00 1.6318903425237853e+01 3.1007702622958782e+01 0 0 0
734 74 1 -1.7999999999999999e-01 5.2516995742745038e+00 1.1827449399124768e+01 3.0099059900917890e+01 1 0 0
739 74 4 5.9999999999999998e-02 4.7104574225722402e+00 1.1905266175301975e+01 3.1116451283492523e+01 1 0 0
648 65 4 5.9999999999999998e-02 1.0889416275443384e+01 1.0573061044298884e+01 3.0929162791747839e+01 1 0 -1
1469 147 4 5.9999999999999998e-02 6.3438562889614480e-01 1.2379271731677514e+01 2.8452226859079460e+01 0 -1 -1
1069 107 4 5.9999999999999998e-02 2.0922735295871475e+00 1.2790077108921375e+01 3.4193062076721461e+01 -1 1 -1