LAMMPS data file via write_data, version 3 Mar 2020, timestep = 280395

4550 atoms
9 atom types
4350 bonds
11 bond types
8100 angles
18 angle types
10500 dihedrals
17 dihedral types

0.0000000000000000e+00 3.6685699999999997e+01 xlo xhi
0.0000000000000000e+00 3.6685699999999997e+01 ylo yhi
0.0000000000000000e+00 3.6685699999999997e+01 zlo zhi

Masses

1 12.0108
2 12.0108
3 1.00795
4 15.9994
5 1.00795
6 12.0108
7 12.0108
8 15.9994
9 1.00795

Pair Coeffs # lj/cut/coul/long

1 0.066 3.5
2 0.066 3.5
3 0.03 2.5
4 0.17 3.12
5 0 10
6 0.066 3.5
7 0.105 3.75
8 0.21 2.96
9 0.015 2.42

Bond Coeffs # harmonic

1 317 1.522
2 570 1.229
3 340 1.09
4 268 1.529
5 268 1.529
6 268 1.529
7 320 1.41
8 340 1.09
9 340 1.09
10 340 1.09
11 553 0.945

Angle Coeffs # harmonic

1 80 120.4
2 70 116
3 35 109.5
4 33 107.8
5 58.35 112.7
6 37.5 110.7
7 37.5 110.7
8 58.35 112.7
9 37.5 110.7
10 58.35 112.7
11 50 109.5
12 37.5 110.7
13 37.5 110.7
14 55 108.5
15 35 109.5
16 33 107.8
17 33 107.8
18 33 107.8

Dihedral Coeffs # opls

1 0 -0 0.275 -0
2 -0 -0 -0 -0
3 1.3 -0.05 0.2 -0
4 -0 -0 0.3 -0
5 1.3 -0.05 0.2 -0
6 -0 -0 0.3 -0
7 -0 -0 0.3 -0
8 1.3 -0.05 0.2 -0
9 1.711 -0.5 0.663 -0
10 -0 -0 0.3 -0
11 -0.356 -0.174 0.492 -0
12 -0 -0 0.3 -0
13 0 -0 0.468 -0
14 -0 -0 0.3 -0
15 -0 -0 0.3 -0
16 -0 -0 0.3 -0
17 0 -0 0.45 -0

Atoms # full

318 32 9 5.9999999999999998e-02 2.2014847106200097e+00 6.4792432865683214e+00 8.5818866273224117e+00 0 0 0
2571 127 3 5.9999999999999998e-02 7.2447282708747300e+00 5.1026128387010692e+00 7.6479855846988709e+00 0 0 0
1148 74 5 4.1799999999999998e-01 1.0913615321298792e+01 7.1020690326031293e+00 2.5665118495992206e-01 0 0 1
606 54 3 5.9999999999999998e-02 9.7565054412635721e+00 5.4218263884099720e+00 3.6645520204671724e+00 0 0 0
330 33 9 5.9999999999999998e-02 4.3037119978232647e+00 4.5910029593048707e+00 6.5636160650145490e+00 1 0 0
323 33 8 -4.6999999999999997e-01 4.9008983225010789e+00 1.4545483886164778e+00 6.2737890612428622e+00 1 0 0
2557 127 2 -1.2000000000000000e-01 8.1635527237237522e+00 5.5877559355038269e+00 7.8812720191266248e+00 0 0 0
2553 127 1 -1.7999999999999999e-01 1.1293881421051685e+01 1.7629723651863649e+00 5.9983316232517740e+00 0 0 0
2811 136 3 5.9999999999999998e-02 3.9811496517579230e+00 2.8444360537336788e+00 3.3575999190564465e+00 0 0 0
2799 136 2 -1.2000000000000000e-01 3.7735773190008222e+00 3.9645895884596070e+00 1.4751663167056479e+00 0 0 0
590 54 4 -6.8300000000000005e-01 1.1345039897885766e+01 5.5558711229510349e+00 2.3419631378405237e+00 0 0 0
2576 127 3 5.9999999999999998e-02 7.5992990595037870e+00 8.6821353223007272e+00 9.1712830317862153e+00 0 0 0
2570 127 3 5.9999999999999998e-02 8.8403537601932705e+00 5.0415660919644356e+00 6.0222826433192616e+00 0 0 0
2818 136 3 5.9999999999999998e-02 7.4676040907192114e+00 5.3613450973224586e+00 6.4154946688697745e-01 0 0 0
320 32 9 5.9999999999999998e-02 2.2775240251150737e+00 6.3587052511172555e+00 6.8115435439120304e+00 0 0 0
2822 136 5 4.1799999999999998e-01 9.8267833051916789e+00 2.3764471494467165e+00 1.5661400358411990e+00 0 0 0
2554 127 2 -1.2000000000000000e-01 1.0694156211306156e+01 3.2173000060411572e+00 5.9510080237185887e+00 0 0 0
602 54 3 5.9999999999999998e-02 1.1780344272013330e+01 7.8962433232677460e+00 2.0516047591898672e+00 0 0 0
2806 136 3 5.9999999999999998e-02 1.5832253459085306e+00 2.0977490012133000e+00 4.7519986862527857e+00 0 0 0
2810 136 3 5.9999999999999998e-02 2.8952056684016623e+00 4.2713580109838754e+00 3.3966334038161645e+00 0 0 0
2166 112 3 5.9999999999999998e-02 1.8606527873174579e+00 8.4518227243706754e+00 7.8212893898675986e-02 0 0 1
2555 127 2 -1.2000000000000000e-01 9.9258323838196496e+00 3.6692717156637178e+00 7.1429811207557430e+00 0 0 0
2556 127 2 -1.2000000000000000e-01 9.2824717357057747e+00 5.0891013065195878e+00 6.9584343306419925e+00 0 0 0
2572 127 3 5.9999999999999998e-02 8.3104820484127124e+00 5.2215058418795079e+00 8.8673549226860153e+00 0 0 0
2161 112 3 5.9999999999999998e-02 2.8446673972709942e+00 8.7598414359226631e+00 4.2950210042163759e+00 0 0 1
328 33 9 5.9999999999999998e-02 4.9876456215408904e+00 3.9668073646313178e+00 7.9875023825760749e+00 1 0 0
2569 127 3 5.9999999999999998e-02 9.9842584451176375e+00 5.8736148102032377e+00 6.9014143922042788e+00 0 0 0
588 54 2 -1.2000000000000000e-01 1.0778249681371033e+01 7.3801322002353080e+00 3.8958496448810087e+00 0 0 0
3536 163 3 5.9999999999999998e-02 7.3868364065142178e-01 2.1886342827837288e+00 8.0272505845081827e+00 1 0 0
2558 127 2 -1.2000000000000000e-01 8.1118152868304154e+00 7.1003937110243500e+00 7.8362988823883155e+00 0 0 0
314 32 1 -1.7999999999999999e-01 2.2254194585224392e+00 7.0737067499258268e+00 7.6229156567470389e+00 0 0 0
589 54 6 1.4499999999999999e-01 1.0276506130710342e+01 6.1009914962386320e+00 3.0651054065802952e+00 0 0 0
2568 127 3 5.9999999999999998e-02 1.0540110752757586e+01 3.6681248724076188e+00 8.0703057920969457e+00 0 0 0
322 33 7 4.6999999999999997e-01 5.1351606472044713e+00 2.6885714105210887e+00 6.2072574554376061e+00 1 0 0
325 33 9 5.9999999999999998e-02 6.0231577759439867e+00 4.2024910583677118e+00 4.7875316841123334e+00 1 0 0
2813 136 3 5.9999999999999998e-02 3.0528377659752457e+00 4.6578347880658963e+00 9.9995329703043412e-01 0 0 0
3323 155 3 5.9999999999999998e-02 8.3652703851369505e+00 9.0581155400786195e-01 8.8587011888746385e+00 0 1 0
2796 136 1 -1.7999999999999999e-01 1.6612915660938117e+00 1.5053874041121311e+00 3.8712741257830561e+00 0 0 0
327 33 9 5.9999999999999998e-02 7.1296265201372080e+00 3.4937281079749756e+00 5.8815074670075651e+00 1 0 0
324 33 1 -1.7999999999999999e-01 4.4029591611828103e+00 3.6664236845048950e+00 7.1071293460604394e+00 1 0 0
2574 127 3 5.9999999999999998e-02 9.1046164804910710e+00 7.4394788961726368e+00 8.0045386159673821e+00 0 0 0
2800 136 2 -1.2000000000000000e-01 5.1474152190293330e+00 4.6638462992494070e+00 1.6436326439305236e+00 0 0 0
4371 194 3 5.9999999999999998e-02 5.8377547279041213e+00 8.7025405536733782e+00 2.0970076381327520e+00 0 0 0
2578 127 3 5.9999999999999998e-02 5.3915085254508170e+00 8.2795350310681748e+00 7.9014848345554398e+00 0 0 0
2819 136 3 5.9999999999999998e-02 7.6955644632334748e+00 4.7927589909578323e+00 2.2696094610382413e+00 0 0 0
605 54 3 5.9999999999999998e-02 9.9320367996617556e+00 7.8167264296478329e+00 4.3525673543812404e+00 0 0 0
3535 163 3 5.9999999999999998e-02 4.2758379906143734e-01 3.8581904728442988e+00 8.5563947585663040e+00 1 0 0
2573 127 3 5.9999999999999998e-02 7.9719168406524759e+00 7.4574204207123422e+00 6.8112246085764800e+00 0 0 0
321 33 1 -1.7999999999999999e-01 6.2134590704306003e+00 3.2617882412962294e+00 5.3193074598245493e+00 1 0 0
319 32 9 5.9999999999999998e-02 3.0888242893876012e+00 7.6885089013814065e+00 7.6348102685716759e+00 0 0 0
2566 127 3 5.9999999999999998e-02 1.0151356235819291e+01 3.3093583311458148e+00 5.0428705831421574e+00 0 0 0
2798 136 2 -1.2000000000000000e-01 3.2064502131844672e+00 3.3469717539889525e+00 2.7748295056576535e+00 0 0 0
2564 127 3 5.9999999999999998e-02 1.2070350965207181e+01 1.6190788842790456e+00 5.1476739848691269e+00 0 0 0
2797 136 2 -1.2000000000000000e-01 2.0410337928802473e+00 2.3988832042748713e+00 2.6460556906434847e+00 0 0 0
2812 136 3 5.9999999999999998e-02 3.8383784277542601e+00 3.2835722938176204e+00 6.2767866774754333e-01 0 0 0
2815 136 3 5.9999999999999998e-02 5.0571187024736748e+00 4.9472996881438354e+00 2.6533566770481904e+00 0 0 0
603 54 3 5.9999999999999998e-02 1.0507999933380342e+01 8.9660934543072148e+00 2.5750597318026296e+00 0 0 0
2808 136 3 5.9999999999999998e-02 2.1823026005432231e+00 1.7359200852726051e+00 1.8955337364696492e+00 0 0 0
329 33 9 5.9999999999999998e-02 3.4295036271186294e+00 3.3108591468515534e+00 7.3642465285747329e+00 1 0 0
2809 136 3 5.9999999999999998e-02 1.2604002508986270e+00 3.0083688745027519e+00 2.2225419869308141e+00 0 0 0
2802 136 2 -1.2000000000000000e-01 7.6063214667520826e+00 4.4412660179486645e+00 1.2279899732802575e+00 0 0 0
2805 136 3 5.9999999999999998e-02 2.3978376951075919e+00 7.7784512203721512e-01 3.9012471864911387e+00 0 0 0
2803 136 6 1.4499999999999999e-01 8.7566833643581035e+00 3.5940163560946545e+00 8.1973290844172542e-01 0 0 0
2801 136 2 -1.2000000000000000e-01 6.2991133458141553e+00 3.7601588732222049e+00 1.2278567963325495e+00 0 0 0
326 33 9 5.9999999999999998e-02 6.3984949102956525e+00 2.4696913465998338e+00 4.6036547023082974e+00 1 0 0
607 54 3 5.9999999999999998e-02 9.4196494419063708e+00 6.2791737980649414e+00 2.4452041204063781e+00 0 0 0
313 32 8 -4.6999999999999997e-01 8.5381832477875896e-01 8.7554760350691279e+00 6.6762253234592235e+00 0 0 0
312 32 7 4.6999999999999997e-01 8.9830428082040970e-01 7.8824835628103234e+00 7.4953195032922357e+00 0 0 0
2560 127 6 1.4499999999999999e-01 5.7363421279864797e+00 7.8102446050018521e+00 8.8502152447765887e+00 0 0 0
2817 136 3 5.9999999999999998e-02 6.3486907966837967e+00 2.9878722644564077e+00 2.0686554437063767e+00 0 0 0
2804 136 4 -6.8300000000000005e-01 8.9131407571535064e+00 2.5274779542595232e+00 1.7251834704349782e+00 0 0 0
2567 127 3 5.9999999999999998e-02 9.0980973762415136e+00 2.9808807889810818e+00 7.2226321196892718e+00 0 0 0
2565 127 3 5.9999999999999998e-02 1.1535979776722503e+01 3.9460464202743206e+00 5.8468976184767429e+00 0 0 0
2561 127 4 -6.8300000000000005e-01 5.1312934523518567e+00 6.5575620037089006e+00 8.6761431532911910e+00 0 0 0
2162 112 3 5.9999999999999998e-02 2.0770006594032218e+00 8.2153103432681682e+00 2.1126828884111108e+00 0 0 1
604 54 3 5.9999999999999998e-02 1.1403524984698896e+01 7.0001460224255547e+00 4.6886106285468028e+00 0 0 0
2563 127 3 5.9999999999999998e-02 1.0554561299366938e+01 9.6243698569102520e-01 5.9083369092619469e+00 0 0 0
587 54 2 -1.2000000000000000e-01 1.1366161449425654e+01 8.4531444286252420e+00 2.8804710087250327e+00 0 0 0
2816 136 3 5.9999999999999998e-02 6.0766306754328845e+00 3.1096879550773648e+00 4.1515719541605378e-01 0 0 0
2562 127 3 5.9999999999999998e-02 1.1921098568056035e+01 1.5051799474246983e+00 6.8729263797148832e+00 0 0 0
2821 136 3 5.9999999999999998e-02 9.6615157458127499e+00 4.2270771257454882e+00 7.7865084303411713e-01 0 0 0
2807 136 3 5.9999999999999998e-02 6.9948902317301676e-01 1.0481655213691459e+00 3.7380891403047865e+00 0 0 0
2559 127 2 -1.2000000000000000e-01 7.2315526329792199e+00 7.6933866623150049e+00 9.0115948804273192e+00 0 0 0
2814 136 3 5.9999999999999998e-02 5.2080756230496057e+00 5.5724067578025922e+00 1.0720098484442697e+00 0 0 0
3911 177 4 -6.8300000000000005e-01 1.1862066366509877e+01 1.2951879056103415e+00 9.5694635312663545e-01 0 0 0
3525 163 1 -1.7999999999999999e-01 8.5826388731953834e-02 2.8694929128143105e+00 8.5990576768956384e+00 1 0 0
608 54 5 4.1799999999999998e-01 1.2114642583964171e+01 5.4975968655877079e+00 2.8979012332970884e+00 0 0 0
2163 112 3 5.9999999999999998e-02 6.1220726938162584e-01 9.0350532783084052e+00 2.8093948828499919e+00 0 0 1
146 15 9 5.9999999999999998e-02 2.2281753710922167e+00 6.8974044550358737e-01 6.7206963035502598e+00 0 0 0
3326 155 3 5.9999999999999998e-02 6.4378055536478378e+00 7.9717058250152711e-02 7.9378615268379207e+00 0 1 0
4372 194 3 5.9999999999999998e-02 7.5185826177019264e+00 9.1139528106257348e+00 2.8406446646216579e+00 0 0 0
3320 155 3 5.9999999999999998e-02 7.0396178420459981e+00 2.8577295305229669e+00 9.1629892216581972e+00 0 1 0
448 45 9 5.9999999999999998e-02 8.7445533525691665e+00 4.3010628787847054e+00 1.5323507281913006e+01 0 0 0
1301 80 3 5.9999999999999998e-02 6.8910997535368856e-01 7.2489583855775983e+00 1.4846023793816101e+01 0 0 0
1000 69 3 5.9999999999999998e-02 9.5939629661072328e+00 8.6899955739129595e+00 1.2833537728547327e+01 0 0 0
1090 72 3 5.9999999999999998e-02 6.4335917330781260e+00 2.8023603114983713e+00 1.5665612895762598e+01 0 0 0
1086 72 3 5.9999999999999998e-02 4.8482645092685184e+00 2.9319698760662782e+00 1.7543458284169287e+01 0 0 0
1091 72 3 5.9999999999999998e-02 5.4124829799259278e+00 1.8906557513942075e+00 1.4599644504736920e+01 0 0 0
1094 72 5 4.1799999999999998e-01 4.4101429339291105e+00 2.8321432047856536e+00 1.2861712392225122e+01 0 0 0
1307 80 3 5.9999999999999998e-02 3.7246427177856751e+00 6.2870099310943903e+00 1.3607174187874209e+01 0 0 0
2222 114 3 5.9999999999999998e-02 1.0184677501643819e+01 1.3534247474648757e+00 1.8294952921578812e+01 0 0 0
450 45 9 5.9999999999999998e-02 9.6394742786336192e+00 5.3387955450566436e+00 1.6428411337501341e+01 0 0 0
4165 186 3 5.9999999999999998e-02 1.2951825388469715e+00 5.6243426235806271e-01 1.6349563283856650e+01 0 1 0
449 45 9 5.9999999999999998e-02 9.5967898844044939e+00 5.7405064826377510e+00 1.4599303228153792e+01 0 0 0
1093 72 3 5.9999999999999998e-02 6.6989456265910157e+00 3.0882906336776799e+00 1.3181734316610891e+01 0 0 0
2575 127 3 5.9999999999999998e-02 7.4217836928971712e+00 7.1905529685300040e+00 9.9487401859051587e+00 0 0 0
446 45 9 5.9999999999999998e-02 1.2163513773150470e+01 5.5761997692517706e+00 1.6485341360973525e+01 0 0 0
52 6 7 4.6999999999999997e-01 1.2100812040079418e+01 5.2864762771608316e+00 9.9820411206869135e+00 0 1 0
663 57 1 -1.7999999999999999e-01 1.0944334140684981e+01 9.6387880223878863e-01 1.0702056713243184e+01 0 1 0
156 16 9 5.9999999999999998e-02 1.1310447278860221e+00 8.4338289096068220e+00 1.7328964873175757e+01 1 1 0
1084 72 3 5.9999999999999998e-02 1.8078322528040296e+00 3.5298706622891167e+00 1.7098168104503724e+01 0 0 0
3892 176 3 5.9999999999999998e-02 9.5350324258337815e-01 8.7259431641384939e+00 1.2418464782205215e+01 0 0 0
1071 72 2 -1.2000000000000000e-01 2.7131509986738034e+00 3.6287715260442770e+00 1.7704883370522158e+01 0 0 0
1088 72 3 5.9999999999999998e-02 4.2475677027736749e+00 4.5801328034666282e+00 1.5559298716625356e+01 0 0 0
1004 69 3 5.9999999999999998e-02 7.0569879909489268e+00 8.1598560657203247e+00 1.3887339737600612e+01 0 0 0
4169 186 3 5.9999999999999998e-02 2.5619156323464183e+00 9.9162888875067090e-01 1.4470431398222638e+01 0 1 0
2216 114 3 5.9999999999999998e-02 9.7105776108053430e+00 2.3466747545190300e-01 1.6336352658359321e+01 0 0 0
672 57 3 5.9999999999999998e-02 1.1718632075194488e+01 1.1395224370516941e+00 1.1455749951926876e+01 0 1 0
3322 155 3 5.9999999999999998e-02 6.2976501961938594e+00 4.3501092156988330e-01 1.1059887933323607e+01 0 1 0
1304 80 3 5.9999999999999998e-02 1.1393121005221334e+00 5.9101515196205234e+00 1.2067480977517649e+01 0 0 0
4452 197 3 5.9999999999999998e-02 6.2983915444934491e+00 7.9183440201951596e+00 1.6315897744419718e+01 0 0 0
57 6 9 5.9999999999999998e-02 1.1353612582135343e+01 3.9404105904321653e+00 1.1302733710509143e+01 0 1 0
1292 80 4 -6.8300000000000005e-01 4.1633478641126835e+00 5.7820869344964771e+00 1.1105604677368483e+01 0 0 0
2663 131 2 -1.2000000000000000e-01 1.1243492563364530e+01 8.3551319088391907e+00 1.7362938732266478e+01 0 0 0
999 69 3 5.9999999999999998e-02 8.8478991014934500e+00 8.9986885503123890e+00 1.1220509466801904e+01 0 0 0
1291 80 6 1.4499999999999999e-01 3.6014392352169482e+00 6.9770574163446648e+00 1.1588970877402687e+01 0 0 0
1074 72 2 -1.2000000000000000e-01 5.5373452282381299e+00 2.8982661997842456e+00 1.4983240293673205e+01 0 0 0
1290 80 2 -1.2000000000000000e-01 2.9763044226390183e+00 6.6204400413459119e+00 1.2867680822301349e+01 0 0 0
1092 72 3 5.9999999999999998e-02 6.2694372267433591e+00 4.6710003311719115e+00 1.3875618383663427e+01 0 0 0
3319 155 3 5.9999999999999998e-02 6.2794931447232596e+00 3.0069269335020126e+00 1.0551989882227085e+01 0 1 0
444 45 1 -1.7999999999999999e-01 9.6700861579513528e+00 4.9670140803067202e+00 1.5400724295873644e+01 0 0 0
1072 72 2 -1.2000000000000000e-01 3.9785737715091636e+00 3.0053547033242713e+00 1.7045265587554823e+01 0 0 0
59 6 9 5.9999999999999998e-02 1.0841919071583025e+01 7.0261605860629643e+00 9.5288908935510896e+00 0 1 0
4153 186 6 1.4499999999999999e-01 2.2728406658685749e+00 5.8839658869370792e-01 1.2425067089193778e+01 0 1 0
2579 127 5 4.1799999999999998e-01 4.8211356889693180e+00 6.0909399440132033e+00 9.5196468674885040e+00 0 0 0
4172 186 5 4.1799999999999998e-01 3.5642340725509767e+00 1.1422297217899409e+00 1.1128221110635273e+01 0 1 0
1003 69 3 5.9999999999999998e-02 6.3357024251423324e+00 8.8611195786271342e+00 1.2366763936273051e+01 0 0 0
4443 197 1 -1.7999999999999999e-01 6.2720983602157245e+00 6.8971079130073090e+00 1.6633275381896858e+01 0 0 0
1308 80 3 5.9999999999999998e-02 2.8797789461779115e+00 7.2704945834382757e+00 1.0842636375863735e+01 0 0 0
443 45 8 -4.6999999999999997e-01 1.0985826486842493e+01 3.2665309963434321e+00 1.4546494644061472e+01 0 0 0
4453 197 3 5.9999999999999998e-02 7.2097389193991823e+00 6.5236602064443243e+00 1.6144475588509518e+01 0 0 0
1089 72 3 5.9999999999999998e-02 3.3186176643649068e+00 3.2584333083401926e+00 1.5016237088442404e+01 0 0 0
442 45 7 4.6999999999999997e-01 1.0965296454754810e+01 4.2183805282364180e+00 1.5310492885760045e+01 0 0 0
1303 80 3 5.9999999999999998e-02 5.2224274099295453e-01 4.3044745542123559e+00 1.3829137422982187e+01 0 0 0
3309 155 1 -1.7999999999999999e-01 6.3599300537866927e+00 2.2469800883377538e+00 9.8100679262640025e+00 0 1 0
1302 80 3 5.9999999999999998e-02 1.7436721397094037e+00 5.0696643215584070e+00 1.4891137694435622e+01 0 0 0
4454 197 3 5.9999999999999998e-02 5.5450466621555581e+00 6.3529193943667392e+00 1.6179103225052941e+01 0 0 0
4151 186 2 -1.2000000000000000e-01 5.0641424235609833e-01 3.9886672085993435e-01 1.4316528915656333e+01 0 1 0
3538 163 3 5.9999999999999998e-02 8.4902823949694683e-01 2.7533330010253727e+00 1.0527985096653527e+01 1 0 0
3321 155 3 5.9999999999999998e-02 7.7686140681805735e+00 1.4346987872175454e+00 1.1218130776453670e+01 0 1 0
1087 72 3 5.9999999999999998e-02 3.6892479250365064e+00 2.0203456502921040e+00 1.6855594882192776e+01 0 0 0
1073 72 2 -1.2000000000000000e-01 4.2429912221865784e+00 3.5200061945520678e+00 1.5603662149098092e+01 0 0 0
4458 197 3 5.9999999999999998e-02 4.0565897883523832e+00 7.2426146530546687e+00 1.8079485400888519e+01 0 0 0
1310 80 5 4.1799999999999998e-01 4.1175118657129657e+00 5.0782925024139836e+00 1.1803562674691934e+01 0 0 0
1288 80 2 -1.2000000000000000e-01 1.0540865593214517e+00 5.2358132026809789e+00 1.4084420149358964e+01 0 0 0
1075 72 6 1.4499999999999999e-01 5.8857636366285417e+00 3.6556734536917843e+00 1.3771011981507453e+01 0 0 0
1309 80 3 5.9999999999999998e-02 4.3138356406565581e+00 7.7539855038362759e+00 1.1848726705984712e+01 0 0 0
2676 131 3 5.9999999999999998e-02 1.0862994205521755e+01 7.5429021034971919e+00 1.6711910986064058e+01 0 0 0
4164 186 3 5.9999999999999998e-02 4.1511639389845090e-01 1.9058743334081025e+00 1.5831824410165375e+01 0 1 0
3318 155 3 5.9999999999999998e-02 5.4033243123028072e+00 2.0136651393102438e+00 9.3679529017047862e+00 0 1 0
1305 80 3 5.9999999999999998e-02 2.3056990713492884e+00 4.6747273245051382e+00 1.2563796013482120e+01 0 0 0
1306 80 3 5.9999999999999998e-02 2.5869363919537260e+00 7.4444219590835878e+00 1.3432995267155476e+01 0 0 0
1085 72 3 5.9999999999999998e-02 3.0275441307327378e+00 4.6490926546389257e+00 1.7703629963514665e+01 0 0 0
990 69 2 -1.2000000000000000e-01 6.7357155747396069e+00 9.1058558822209292e+00 1.3355114123774008e+01 0 0 0
1289 80 2 -1.2000000000000000e-01 1.8226433365462489e+00 5.6236625020486191e+00 1.2794939091799289e+01 0 0 0
674 57 3 5.9999999999999998e-02 1.0052283552598437e+01 8.1762316918285549e-01 1.1271084102230406e+01 0 1 0
4152 186 2 -1.2000000000000000e-01 1.7357521733818537e+00 1.1646328947207270e+00 1.3712741500070527e+01 0 1 0
4150 186 2 -1.2000000000000000e-01 3.6925933284013934e-01 7.9752372763349222e-01 1.5828412768167013e+01 0 1 0
60 6 9 5.9999999999999998e-02 1.1907417787073371e+01 7.3916483253357423e+00 1.0716401011273375e+01 0 1 0
54 6 1 -1.7999999999999999e-01 1.1363200030748301e+01 6.5851131519959392e+00 1.0306003384267692e+01 0 1 0
1076 72 4 -6.8300000000000005e-01 4.7542305904967455e+00 3.7245842455054241e+00 1.2942132773713688e+01 0 0 0
3311 155 2 -1.2000000000000000e-01 7.8466392443280366e+00 2.0379652638160126e-01 9.5097502745554188e+00 0 1 0
4171 186 3 5.9999999999999998e-02 1.5546294900225328e+00 6.5678889043189914e-01 1.1631812891332107e+01 0 1 0
4168 186 3 5.9999999999999998e-02 1.5185502341032351e+00 2.2351201440033104e+00 1.3504381907251881e+01 0 1 0
4154 186 4 -6.8300000000000005e-01 3.4127046510347476e+00 1.3237227226014887e+00 1.2058189824947890e+01 0 1 0
58 6 9 5.9999999999999998e-02 1.0511330680495801e+01 6.3185699352672380e+00 1.0941491639745598e+01 0 1 0
1005 69 3 5.9999999999999998e-02 4.8857032774677922e+00 8.7832822539345248e+00 1.4560461794219604e+01 0 0 0
3310 155 2 -1.2000000000000000e-01 7.0422767051371356e+00 1.0310121836002148e+00 1.0501067687932583e+01 0 1 0
673 57 3 5.9999999999999998e-02 1.0793468899666911e+01 1.8151932102270711e+00 1.0068347626303105e+01 0 1 0
3756 171 3 5.9999999999999998e-02 3.1790801370282402e+00 1.7887612507016926e-01 1.8077467783249112e+01 0 0 0
1287 80 2 -1.2000000000000000e-01 1.5499133644477467e-01 6.3806044839996545e+00 1.4587725435622284e+01 0 0 0
4444 197 2 -1.2000000000000000e-01 6.2352887390393699e+00 6.8033134556318382e+00 1.8143434710445842e+01 0 0 0
2577 127 3 5.9999999999999998e-02 5.3275171224762641e+00 8.5035764122149686e+00 9.6268403456189819e+00 0 0 0
2848 137 3 5.9999999999999998e-02 4.9086195585742569e+00 4.6413524801991475e+00 2.3467305098484513e+01 0 0 0
465 47 9 5.9999999999999998e-02 8.3293689816834089e+00 8.9666217259665881e+00 2.6403973906045270e+01 0 0 0
2827 137 2 -1.2000000000000000e-01 2.3509557110924573e+00 8.0824944708845567e+00 2.5097118338536777e+01 0 0 0
1079 72 3 5.9999999999999998e-02 2.6059631553687801e-01 4.0656317513715745e+00 2.1733119304686841e+01 0 0 0
1081 72 3 5.9999999999999998e-02 1.1609142748983390e+00 4.9684092818302199e+00 1.9612680356608337e+01 0 0 0
2687 131 5 4.1799999999999998e-01 6.9625109811770942e+00 4.9134043269254759e+00 2.2331789882790368e+01 0 0 0
3092 146 5 4.1799999999999998e-01 1.0520555915342827e+01 2.2437135503133319e+00 2.4747991607551523e+01 0 0 0
1082 72 3 5.9999999999999998e-02 3.1920997781457934e+00 3.1301981516028810e+00 1.9750450097101922e+01 0 0 0
2469 123 3 5.9999999999999998e-02 9.3974827182102878e+00 4.3007320438831176e+00 2.7265474335583953e+01 0 0 0
3090 146 3 5.9999999999999998e-02 1.0713501048744428e+01 5.4435544322099150e-01 2.6022325680486457e+01 0 0 0
1068 72 1 -1.7999999999999999e-01 8.1193441476599082e-01 3.3985222864402176e+00 2.1063608160869194e+01 0 0 0
2842 137 3 5.9999999999999998e-02 2.8041668387185581e+00 8.6088102313669008e+00 2.4250059228402559e+01 0 0 0
3656 167 3 5.9999999999999998e-02 6.2394377901626283e+00 2.2600076343232307e+00 2.6149282437125056e+01 0 1 0
3635 167 2 -1.2000000000000000e-01 1.3064813436175395e+00 1.0489040796515261e+00 2.4402976054831718e+01 0 1 0
4462 197 3 5.9999999999999998e-02 3.3085407285186053e+00 7.4628905318077630e+00 2.1790522082097077e+01 0 0 0
2841 137 3 5.9999999999999998e-02 1.4573714641044160e+00 7.5739916540312509e+00 2.4731127938227118e+01 0 0 0
2210 114 4 -6.8300000000000005e-01 1.0206825459611570e+01 4.1050652610573231e+00 1.9000391034641673e+01 0 0 0
2470 123 3 5.9999999999999998e-02 8.6533356470469496e+00 5.1514080743459987e+00 2.5758050932549452e+01 0 0 0
2665 131 2 -1.2000000000000000e-01 9.8459303667297053e+00 7.7155748664592183e+00 1.9297943444659623e+01 0 0 0
2844 137 3 5.9999999999999998e-02 4.1215839366588414e+00 7.3672077425027984e+00 2.6135728879073639e+01 0 0 0
2845 137 3 5.9999999999999998e-02 3.0382173394101897e+00 6.0467371204274531e+00 2.3520992077361448e+01 0 0 0
2831 137 4 -6.8300000000000005e-01 5.7461541119929072e+00 5.0930636605202855e+00 2.5233881264313052e+01 0 0 0
3765 171 3 5.9999999999999998e-02 6.2192577061636856e+00 2.7881442522612909e+00 2.3076336527996066e+01 0 0 0
2680 131 3 5.9999999999999998e-02 9.1859836601352285e+00 7.1467136869284316e+00 1.8640294622541340e+01 0 0 0
3651 167 3 5.9999999999999998e-02 3.5974261885850916e+00 2.7790882682355195e-01 2.5512009427690149e+01 0 1 0
2684 131 3 5.9999999999999998e-02 8.0085679628783613e+00 6.0910581485590054e+00 2.0454923828219172e+01 0 0 0
2681 131 3 5.9999999999999998e-02 1.0254514424765214e+01 7.9132079961303674e+00 2.1451564353115639e+01 0 0 0
3650 167 3 5.9999999999999998e-02 1.4443283381515126e+00 1.1056705506354996e+00 2.6456100816210807e+01 0 1 0
4447 197 2 -1.2000000000000000e-01 3.4992581963935105e+00 7.9054148236554562e+00 2.0768400467070759e+01 0 0 0
3074 146 4 -6.8300000000000005e-01 1.1130373407425941e+01 1.6652777387025153e+00 2.4268951736637423e+01 0 0 0
2471 123 5 4.1799999999999998e-01 8.7009583117691296e+00 2.8760112500852233e+00 2.5911684774116328e+01 0 0 0
2206 114 2 -1.2000000000000000e-01 8.3850151485958015e+00 8.8448382079372362e-02 1.8686289939439060e+01 0 0 0
2685 131 3 5.9999999999999998e-02 9.4198605534312208e+00 5.2937099802560983e+00 2.2628049957835099e+01 0 0 0
3485 161 3 5.9999999999999998e-02 9.5586698981438123e-02 8.4905045653833575e+00 2.2792211283612307e+01 1 0 0
4460 197 3 5.9999999999999998e-02 5.5717985980667324e+00 7.3940574848781182e+00 2.0796753658614090e+01 0 0 0
2830 137 6 1.4499999999999999e-01 4.5512436455498522e+00 4.8915983261762621e+00 2.4466872022047113e+01 0 0 0
2208 114 2 -1.2000000000000000e-01 9.2517966868886248e+00 2.2291499503737384e+00 2.0085740838740573e+01 0 0 0
2452 123 6 1.4499999999999999e-01 9.4900188252070148e+00 4.5499653631857653e+00 2.6160956385446045e+01 0 0 0
3639 167 2 -1.2000000000000000e-01 5.8163191019094258e+00 1.6336630680439661e+00 2.6890953739364651e+01 0 1 0
2829 137 2 -1.2000000000000000e-01 3.8731906742773550e+00 6.2570415604352014e+00 2.4229563617584127e+01 0 0 0
2686 131 3 5.9999999999999998e-02 8.6977437192757332e+00 6.8192548698117195e+00 2.3207249639419604e+01 0 0 0
1070 72 2 -1.2000000000000000e-01 2.3203864323778585e+00 3.1381764730506996e+00 1.9064748015652771e+01 0 0 0
2826 137 2 -1.2000000000000000e-01 2.0076488240903232e+00 9.1168205305394032e+00 2.6210967059810997e+01 0 0 0
3766 171 3 5.9999999999999998e-02 7.1767084976579198e+00 1.8784718223520502e+00 2.1980487562725891e+01 0 0 0
2664 131 2 -1.2000000000000000e-01 1.1272652339314989e+01 7.8020431991543271e+00 1.8805694524223931e+01 0 0 0
4461 197 3 5.9999999999999998e-02 2.5635670948822114e+00 7.7007902016771190e+00 2.0263873751551600e+01 0 0 0
2224 114 3 5.9999999999999998e-02 8.2670691992562180e+00 2.5157817573211072e+00 1.9749657095512379e+01 0 0 0
4457 197 3 5.9999999999999998e-02 5.0043371204807654e+00 8.6420737072570457e+00 1.8492887422204113e+01 0 0 0
3767 171 5 4.1799999999999998e-01 5.7295322625004026e+00 3.1750863866999355e+00 2.0378512354216053e+01 0 0 0
2846 137 3 5.9999999999999998e-02 4.4840290282245201e+00 6.9316233534624425e+00 2.3627553851229329e+01 0 0 0
2828 137 2 -1.2000000000000000e-01 3.3538212197102308e+00 6.9466980734555293e+00 2.5476240766994813e+01 0 0 0
2466 123 3 5.9999999999999998e-02 1.0416355962445898e+01 6.6694371986304377e+00 2.7359737737049340e+01 0 0 0
2666 131 2 -1.2000000000000000e-01 9.8247797143955040e+00 7.1231057509512539e+00 2.0738395543084724e+01 0 0 0
1078 72 3 5.9999999999999998e-02 1.7355613062339166e+00 3.2486061447414039e+00 2.1486533870814380e+01 0 0 0
3746 171 2 -1.2000000000000000e-01 5.0590472878366910e+00 6.6828494892868573e-01 2.0622343944521177e+01 0 0 0
2227 114 3 5.9999999999999998e-02 1.1302028206804538e+01 2.7741633382890019e+00 2.0142525448196707e+01 0 0 0
1069 72 2 -1.2000000000000000e-01 1.0666750523104922e+00 3.8344391486959224e+00 1.9653673885703483e+01 0 0 0
2207 114 2 -1.2000000000000000e-01 9.6219604211276781e+00 9.6679056842571176e-01 1.9153240918379847e+01 0 0 0
2668 131 6 1.4499999999999999e-01 8.5766609634414834e+00 6.0264828258554308e+00 2.2490243339706890e+01 0 0 0
2451 123 2 -1.2000000000000000e-01 1.0849384930368204e+01 5.1906417653170518e+00 2.5882704425997179e+01 0 0 0
2678 131 3 5.9999999999999998e-02 1.1849388249999535e+01 8.4126380776412120e+00 1.9453969051452852e+01 0 0 0
1083 72 3 5.9999999999999998e-02 2.0212339869640283e+00 2.0976794593650334e+00 1.8958396341206100e+01 0 0 0
2669 131 4 -6.8300000000000005e-01 7.4354941260427312e+00 5.4123183958333527e+00 2.2974539731900322e+01 0 0 0
2682 131 3 5.9999999999999998e-02 1.0505829822956034e+01 6.2299354845236961e+00 2.0827050369962070e+01 0 0 0
2683 131 3 5.9999999999999998e-02 7.6297368918819020e+00 7.5709780864411860e+00 2.1229014188227552e+01 0 0 0
3654 167 3 5.9999999999999998e-02 3.9535334676650482e+00 2.8437575923467415e+00 2.7232894689605939e+01 0 1 0
2849 137 5 4.1799999999999998e-01 6.3655792309909929e+00 5.2475491812249118e+00 2.4481057515684522e+01 0 0 0
4455 197 3 5.9999999999999998e-02 6.4285670902389427e+00 5.7780184368781713e+00 1.8395615725312620e+01 0 0 0
2667 131 2 -1.2000000000000000e-01 8.3571241183631386e+00 6.7380187929349518e+00 2.1201514439087262e+01 0 0 0
2847 137 3 5.9999999999999998e-02 3.8473138524667658e+00 4.1354535026784536e+00 2.4803285113244019e+01 0 0 0
4459 197 3 5.9999999999999998e-02 4.4675950167750482e+00 6.0003062205796196e+00 2.0111152346651092e+01 0 0 0
4456 197 3 5.9999999999999998e-02 6.9092776951440200e+00 7.4797832666362662e+00 1.8612195159663322e+01 0 0 0
3087 146 3 5.9999999999999998e-02 8.5641450724749095e+00 9.4168422732751189e-01 2.3527706477584239e+01 0 0 0
2885 139 4 -6.8300000000000005e-01 6.9925858065509878e+00 6.5644787790164143e+00 2.7411068798550154e+01 0 0 0
3761 171 3 5.9999999999999998e-02 5.0992866736214975e+00 1.3690463911420974e+00 1.9736308463616680e+01 0 0 0
3749 171 4 -6.8300000000000005e-01 6.1138065947672944e+00 3.5419208664072284e+00 2.1133646352385320e+01 0 0 0
2839 137 3 5.9999999999999998e-02 1.8902090932365823e+00 8.7427892196069905e+00 2.7217868772755608e+01 0 0 0
2223 114 3 5.9999999999999998e-02 1.0278303812938146e+01 2.5462917659086348e-01 1.9634992515062116e+01 0 0 0
3763 171 3 5.9999999999999998e-02 4.1478370638408446e+00 2.2123902345820374e+00 2.1788698860477524e+01 0 0 0
4446 197 2 -1.2000000000000000e-01 4.6796774157708416e+00 7.1362160807057009e+00 2.0120418915083519e+01 0 0 0