
variable        infile index octanol_ua.data   # The name of the (edited) data file

#>>>>>> Simulation settings <<<<<<<

units		 real		#angstroms = length -
atom_style	 full		#How the atoms are defined in the input data file
boundary        p p p           #periodic box in x, y and z
pair_style	 lj/cut/coul/long 14.0    #'lj/cut/coul/long 12.0' for your ethanol simulation
pair_modify     tail yes            #Tail corrections
pair_modify     mix arithmetic      #Lorentz-Berthelot pair interactions between dissimilar atom

# The settings below are additional settings you must add for your ethanol simulation as already detailed in your example NPT LAMMPS script in the tutorial
# For your ethanol homework, change/edit the pair_style line as advised above and uncomment the extra settings below and you should be good to go for this section.

special_bonds   lj/coul 0.0 0.0 0.5
kspace_style    ewald 0.0001
bond_style      harmonic
angle_style     harmonic
dihedral_style  opls


# >>> Using the variable command in LAMMPS to define inputs/settings for the simulation <<<<<<

variable   simulationTemp  index 383     #Simulation temperature
variable   simulationPress equal 0.987	#Simulation pressure

# Output files frequencies
variable        dumpfreq   index 1000          #Output frequency of dump information to dump
variable        thermofreq index 1000          #Output frequency of property information to log
variable        printfreq  index 1000          #Output frequency of information to be printed
variable        restartfreq index 1000000      #Output frequency of restart files


# Simulation run times (equilibration and production)
variable        NVT_equib  index 1000000       # Equilibration run length (in timesteps)
variable        NVT_prod   index 3000000       # Simulation run length  (in timesteps)


# Defining properties to output
# The first expression after the 'variable' command is a user defined name for the variable, it can be anything
# The expression after the 'equal' keyword are LAMMPS special/reserved terms for those property

variable    step        equal step
variable    density     equal density
variable    temp        equal temp
variable    press       equal press
variable    ke          equal ke
variable    pe          equal pe
variable    etotal      equal etotal
variable    enthalpy    equal enthalpy


# >>>>>>>>>>> Reading data, Neighbor list settings, energy minimization, assigning initial velocities & specifying thermodynamic property output style to log files <<<<<<<<<

read_data	${infile}
read_data	octanol_ua.data
  orthogonal box = (0 0 0) to (40 40 40)
  3 by 4 by 4 MPI processor grid
  reading atoms ...
  2000 atoms
  scanning bonds ...
  1 = max bonds/atom
  scanning angles ...
  1 = max angles/atom
  scanning dihedrals ...
  1 = max dihedrals/atom
  reading bonds ...
  1800 bonds
  reading angles ...
  1600 angles
  reading dihedrals ...
  1400 dihedrals
  2 = max # of 1-2 neighbors
  2 = max # of 1-3 neighbors
  4 = max # of 1-4 neighbors
  6 = max # of special neighbors
  special bonds CPU = 0.0225834 secs
  read_data CPU = 0.0487624 secs
neighbor        1.0 bin
neigh_modify    delay 0 every 1 check yes page 1000000 one 20000
timestep        1.0

minimize        1e-4 1e-6 10000 100000        #Energy minimize before creating velocities
Ewald initialization ...
  using 12-bit tables for long-range coulomb (src/kspace.cpp:332)
  G vector (1/distance) = 0.147428
  estimated absolute RMS force accuracy = 0.041374
  estimated relative force accuracy = 0.000124597
  KSpace vectors: actual max1d max3d = 128 4 364
                  kxmax kymax kzmax  = 4 4 4
Neighbor list info ...
  update every 1 steps, delay 0 steps, check yes
  max neighbors/atom: 20000, page size: 1000000
  master list distance cutoff = 15
  ghost atom cutoff = 15
  binsize = 7.5, bins = 6 6 6
  1 neighbor lists, perpetual/occasional/extra = 1 0 0
  (1) pair lj/cut/coul/long, perpetual
      attributes: half, newton on
      pair build: half/bin/newton
      stencil: half/bin/3d/newton
      bin: standard
Per MPI rank memory allocation (min/avg/max) = 18.73 | 18.85 | 19.24 Mbytes
Step Temp E_pair E_mol TotEng Press 
       0            0    278272.25    45807.952     324080.2    1091500.2 
     519            0   -2759.2838    366.72189   -2392.5619    -653.1094 
Loop time of 2.26612 on 48 procs for 519 steps with 2000 atoms

41.0% CPU use with 48 MPI tasks x 1 OpenMP threads

Minimization stats:
  Stopping criterion = energy tolerance
  Energy initial, next-to-last, final = 
         324080.203868      -2392.3711054     -2392.56188381
  Force two-norm initial, final = 76473.1 25.3948
  Force max component initial, final = 6066.45 5.47673
  Final line search alpha, max atom move = 0.0145911 0.0799117
  Iterations, force evaluations = 519 954

MPI task timing breakdown:
Section |  min time  |  avg time  |  max time  |%varavg| %total
---------------------------------------------------------------
Pair    | 0.056924   | 0.32536    | 0.60115    |  27.9 | 14.36
Bond    | 0.0035648  | 0.01132    | 0.017547   |   3.5 |  0.50
Kspace  | 0.28927    | 0.54897    | 0.78952    |  19.3 | 24.23
Neigh   | 0.037268   | 0.039694   | 0.043013   |   0.7 |  1.75
Comm    | 0.59317    | 0.73316    | 0.85483    |   5.9 | 32.35
Output  | 0          | 0          | 0          |   0.0 |  0.00
Modify  | 0          | 0          | 0          |   0.0 |  0.00
Other   |            | 0.6076     |            |       | 26.81

Nlocal:    41.6667 ave 67 max 13 min
Histogram: 3 5 3 4 6 5 5 8 8 1
Nghost:    2115.67 ave 2186 max 2016 min
Histogram: 13 2 1 0 0 0 1 10 8 13
Neighs:    9780.23 ave 16722 max 1938 min
Histogram: 4 5 4 5 3 5 3 7 9 3

Total # of neighbors = 469451
Ave neighs/atom = 234.726
Ave special neighs/atom = 4.8
Neighbor list builds = 47
Dangerous builds = 0
#velocity	all create ${simulationTemp} 886874 mom yes rot yes dist gaussian

velocity        all create  ${simulationTemp} 317879265 units box
velocity        all create  383 317879265 units box
velocity        all zero linear units box

# The 'velocity' command line above assigns initial velocities to the atoms in our data file, see the LAMMPS 'velocity' command
# The number '886874' is the seed number which helps LAMMPS to consistently assign the same randomized velocities for the same simulation with the same seed number
# Changing that seed number for your simulation of a given system is one easy way to run an 'independent' simulation of the same system as taught in class
# You will need to do this for your homework

thermo_style    custom step vol temp press ke pe etotal enthalpy evdwl ecoul epair ebond eangle edihed eimp emol elong etail lx ly lz xy xz yz density
thermo          ${thermofreq}
thermo          1000

fix npt_density all npt temp ${simulationTemp} ${simulationTemp} 100 iso ${simulationPress} ${simulationPress} 1000
fix npt_density all npt temp 383 ${simulationTemp} 100 iso ${simulationPress} ${simulationPress} 1000
fix npt_density all npt temp 383 383 100 iso ${simulationPress} ${simulationPress} 1000
fix npt_density all npt temp 383 383 100 iso 0.987 ${simulationPress} 1000
fix npt_density all npt temp 383 383 100 iso 0.987 0.987 1000

run 50000
Ewald initialization ...
  using 12-bit tables for long-range coulomb (src/kspace.cpp:332)
  G vector (1/distance) = 0.147428
  estimated absolute RMS force accuracy = 0.041374
  estimated relative force accuracy = 0.000124597
  KSpace vectors: actual max1d max3d = 128 4 364
                  kxmax kymax kzmax  = 4 4 4
Per MPI rank memory allocation (min/avg/max) = 17.6 | 17.76 | 18.11 Mbytes
Step Volume Temp Press KinEng PotEng TotEng Enthalpy E_vdwl E_coul E_pair E_bond E_angle E_dihed E_impro E_mol E_long E_tail Lx Ly Lz Xy Xz Yz Density 
     519        64000          383    976.93243    2282.1588   -2392.5619   -110.40304    801.44064   -1771.8765    3145.3273   -2759.2838    23.571376    41.518217     301.6323            0    366.72189   -4132.7346   -52.673181           40           40           40            0            0            0   0.67579459 
    1000    67966.922    336.09358    236.20707    2002.6604   -520.09983    1482.5606    1716.6956   -1530.5926    3352.6595    -2309.429    606.30791    491.18431    691.83694            0    1789.3292   -4131.4959   -49.598886    40.809932    40.809932    40.809932            0            0            0   0.63635152 
    2000     71589.26    397.27432   -190.79152    2367.2143   -86.020635    2281.1937    2081.9967   -1277.9856     3277.353   -2132.2165    713.47228    551.45992    781.26364            0    2046.1958   -4131.5839   -47.089237    41.522417    41.522417    41.522417            0            0            0   0.60415283 
    3000    67978.043     377.4488    738.33718    2249.0812   -11.624255     2237.457    2969.4371   -1316.5834    3284.6685    -2161.935    724.56317    609.69162    816.05592            0    2150.3107     -4130.02   -49.590771    40.812157    40.812157    40.812157            0            0            0   0.63624741 
    4000    64743.276    367.24107   -1266.1737    2188.2571   -208.76537    1979.4917    783.95241   -1405.7158    3201.1279   -2333.9791    754.18117    568.14132    802.89125            0    2125.2137   -4129.3912   -52.068474    40.154254    40.154254    40.154254            0            0            0   0.66803623 
    5000    63536.085     390.0332    235.80871    2324.0672   -302.10689    2021.9603    2240.4627   -1436.5347    3193.1106   -2373.4113    694.93577    570.80518    805.56349            0    2071.3044   -4129.9872    -53.05778    39.903117    39.903117    39.903117            0            0            0   0.68072898 
    6000    61347.847    384.75408    1131.2547    2292.6108   -438.27657    1854.3342    2866.4626   -1459.0378    3068.3898   -2521.5722    681.35847    621.57253    780.36462            0    2083.2956   -4130.9242   -54.950316    39.439655    39.439655    39.439655            0            0            0   0.70501014 
    7000    59694.948    390.82179     1052.092    2328.7661   -441.03225    1887.7338    2803.6741   -1486.2975    3031.0469   -2585.0776    674.49973    672.71247    796.83319            0    2144.0454   -4129.8271    -56.47184    39.082217    39.082217    39.082217            0            0            0   0.72453123 
    8000    59384.505    396.27214    1011.6795    2361.2427   -459.86727    1901.3755    2777.5528   -1476.4797    3020.4454   -2586.3909    688.47549    621.23357    816.81461            0    2126.5237   -4130.3566   -56.767057     39.01435     39.01435     39.01435            0            0            0   0.72831884 
    9000    58102.956    377.92077    1199.1028    2251.8936    -516.7463    1735.1473    2751.2334   -1487.7321    3010.5737   -2608.5636    678.99895    606.86377     805.9546            0    2091.8173   -4131.4052   -58.019141    38.731657    38.731657    38.731657            0            0            0   0.74438302 
   10000     58574.26    389.53668   -827.28031    2321.1086   -466.08773    1855.0208    1148.3203   -1478.6989    3002.8813   -2601.0769    677.98213    648.39153    808.61552            0    2134.9892   -4125.2593   -57.552303    38.836099    38.836099    38.836099            0            0            0   0.73839352 
   11000     58102.08     381.6789   -2002.7124    2274.2869   -531.09765    1743.1892    46.172402   -1530.8332    3007.0879   -2653.6809    679.45435    607.25566    835.87322            0    2122.5832   -4129.9356   -58.020016    38.731462    38.731462    38.731462            0            0            0   0.74439425 
   12000    58134.994    382.03644    -13.12133    2276.4174   -540.05504    1736.3623    1725.2375   -1510.6275    2983.3625   -2654.8285    702.72047    622.32088    789.73212            0    2114.7735   -4127.5636   -57.987166    38.738774    38.738774    38.738774            0            0            0    0.7439728 
   13000     57757.03    382.81366   -710.37091    2281.0485   -529.70462    1751.3439    1152.9793    -1529.807    2958.0965   -2701.0261    738.57415    632.25669    800.49068            0    2171.3215   -4129.3156   -58.366637    38.654639    38.654639    38.654639            0            0            0   0.74884138 
   14000    58747.875    387.24415   -506.04947    2307.4482   -507.21824    1800.2299    1366.6582   -1475.1966    2925.8237   -2679.8367    752.31393    603.58014    816.72437            0    2172.6184   -4130.4638   -57.382222    38.874432    38.874432    38.874432            0            0            0   0.73621138 
   15000    59231.553    374.90624   -519.23229    2233.9311    -587.6584    1646.2727    1197.7435   -1545.1872    2954.9664   -2721.2748    700.91621    646.56549    786.13468            0    2133.6164    -4131.054   -56.913645    38.980826    38.980826    38.980826            0            0            0   0.73019957 
   16000    56800.518    387.80597    340.25096    2310.7959   -565.42177    1745.3741    2027.2303   -1563.6278    2935.1439   -2759.6975    762.67949    628.81109    802.78512            0    2194.2757   -4131.2136   -59.349522    38.440064    38.440064    38.440064            0            0            0   0.76145176 
   17000    57421.782    381.40004    302.78138    2272.6253   -635.38097    1637.2443    1890.8049   -1538.3988    2893.0608   -2774.5305     705.3217    604.30859    829.51923            0    2139.1495   -4129.1925   -58.707401    38.579704    38.579704    38.579704            0            0            0   0.75321337 
   18000    57260.128    398.02755    746.45568    2371.7026   -650.72598    1720.9766     2344.327   -1514.3739     2870.293   -2776.3722    699.86543    640.45639    785.32437            0    2125.6462   -4132.2912   -58.873141    38.543467    38.543467    38.543467            0            0            0   0.75533981 
   19000    57123.992    377.16596    -430.5971    2247.3959   -638.11317    1609.2827    1250.5545    -1502.591    2894.1917   -2740.3134    708.44692    578.04963    815.70367            0    2102.2002   -4131.9141   -59.013446    38.512896    38.512896    38.512896            0            0            0   0.75713991 
   20000    57775.866    389.39245    637.33442    2320.2492   -636.91758    1683.3316    2220.3507   -1516.6365    2856.4592   -2789.8663    722.96329    633.24597    796.73947            0    2152.9487    -4129.689   -58.347608     38.65884     38.65884     38.65884            0            0            0   0.74859725 
   21000     56246.86    375.73316    479.03225    2238.8584   -599.40583    1639.4526     2032.404   -1549.7797    2868.3569   -2811.0403    744.77587    636.84387    830.01475            0    2211.6345   -4129.6176    -59.93372    38.314759    38.314759    38.314759            0            0            0   0.76894699 
   22000    57668.042    378.91644    833.01199    2257.8264   -608.05238     1649.774    2350.3614   -1521.4427    2853.4132   -2799.7562    732.13073    655.92801    803.64506            0    2191.7038   -4131.7267   -58.456703    38.634776    38.634776    38.634776            0            0            0   0.74999693 
   23000    56995.172    383.19314    108.73994    2283.3097   -719.46038    1563.8493    1654.2357   -1560.1947    2871.5269   -2818.3821    679.92714     613.1611     805.8335            0    2098.9217   -4129.7143   -59.146827    38.483925    38.483925    38.483925            0            0            0   0.75885119 
   24000     57547.69    386.99252   -700.00356    2305.9488   -698.96266    1606.9862    1019.4914   -1492.5064     2786.432    -2835.637    709.46974    619.83515    807.36948            0    2136.6744   -4129.5626   -58.578956    38.607881    38.607881    38.607881            0            0            0   0.75156542 
   25000    57753.624    384.66809   -103.23974    2292.0984   -651.97306    1640.1254    1553.1689   -1494.7818    2884.5249   -2740.4944    711.58806    626.27221    750.66105            0    2088.5213   -4130.2375   -58.370079    38.653879    38.653879    38.653879            0            0            0   0.74888555 
   26000    56919.646    371.24765    139.94712    2212.1309   -702.57761    1509.5533    1625.7254   -1537.9749    2857.0441   -2812.8512    730.61999    583.70808    795.94553            0    2110.2736   -4131.9204   -59.225308    38.466919    38.466919    38.466919            0            0            0   0.75985809 
   27000    57545.175    375.63516   -183.30931    2238.2744   -669.62336    1568.6511     1414.811   -1499.3406    2820.6072   -2810.2742    713.01699    630.94578    796.68806            0    2140.6508   -4131.5407   -58.581516    38.607318    38.607318    38.607318            0            0            0   0.75159828 
   28000    56522.278    373.06278    852.90885    2222.9466   -741.31244    1481.6341    2184.7035   -1552.4789    2837.5506   -2844.6098    689.87934    614.67959    798.73845            0    2103.2974   -4129.6815    -59.64168    38.377194    38.377194    38.377194            0            0            0   0.76520013 
   29000    57250.214     385.7881    697.39314    2298.7721   -727.12237    1571.6497    2153.9281   -1566.7367    2861.2407   -2835.4117    723.23453    598.79861    786.25618            0    2108.2893   -4129.9157   -58.883336    38.541242    38.541242    38.541242            0            0            0   0.75547061 
   30000    56861.828    379.09807   -302.63759    2258.9086   -634.80818    1624.1005    1373.1318   -1555.7649    2916.6353   -2768.8908     703.6564      632.657    797.76926            0    2134.0827   -4129.7612   -59.285529    38.453889    38.453889    38.453889            0            0            0   0.76063073 
   31000    56756.789    378.91089   -1481.7722    2257.7933   -660.36382    1597.4295    370.90805   -1570.5669      2893.38   -2809.1381    727.19398    633.45185    788.12844            0    2148.7743   -4131.9511   -59.395248    38.430197    38.430197    38.430197            0            0            0   0.76203842 
   32000    57583.173    386.16072    58.480266    2300.9924   -674.41396    1626.5785    1675.6897   -1539.1206    2843.4011   -2826.5184    744.71174    611.71854    795.67414            0    2152.1044   -4130.7989   -58.542859    38.615814    38.615814    38.615814            0            0            0   0.75110231 
   33000    58732.557    382.03574   -622.37585    2276.4132   -647.18574    1629.2275    1096.1289   -1492.3491    2895.1914   -2725.8645    718.45274    584.27725    775.94882            0    2078.6788   -4128.7069   -57.397188    38.871053    38.871053    38.871053            0            0            0   0.73640339 
   34000    58126.335    381.30107   -237.64445    2272.0356   -650.03445    1622.0011    1420.5468   -1474.9615    2825.7415   -2780.3689    685.78322    640.92158     803.6297            0    2130.3345    -4131.149   -57.995804    38.736851    38.736851    38.736851            0            0            0   0.74408362 
   35000    56644.197    394.04492   -631.18019    2347.9716   -784.71815    1563.2534     1041.837   -1554.3086    2835.1896   -2849.3764    716.54585    597.56648    750.54595            0    2064.6583   -4130.2575   -59.513309    38.404768    38.404768    38.404768            0            0            0   0.76355313 
   36000    57801.082     385.5179    134.29483    2297.1621   -662.98847    1634.1736    1747.3801   -1495.1788    2862.0335   -2763.9577    688.13761    610.33037    802.50121            0    2100.9692   -4130.8124   -58.322153    38.664464    38.664464    38.664464            0            0            0   0.74827066 
   37000    56804.287    387.60716    1104.3864    2309.6112   -679.13529     1630.476    2545.3853   -1600.9573    2949.5957   -2782.0947    690.31304    607.11662    805.52979            0    2102.9594   -4130.7331   -59.345584    38.440914    38.440914    38.440914            0            0            0   0.76140124 
   38000    57361.114     390.5751   -153.20212    2327.2961   -616.56004    1710.7361    1582.5744   -1520.9371    2863.2989    -2787.767    746.98582    642.68313    781.53802            0     2171.207   -4130.1289   -58.769493    38.566112    38.566112    38.566112            0            0            0   0.75401001 
   39000    57253.176    387.91998    280.43654    2311.4752   -754.79093    1556.6843    1790.8429   -1555.3145    2882.8525   -2802.8284    695.26296    589.52244    763.25207            0    2048.0375   -4130.3664    -58.88029    38.541906    38.541906    38.541906            0            0            0   0.75543153 
   40000    56660.111    387.52513   -1120.4099    2309.1225   -752.34216    1556.7803    630.95245   -1555.0579    2821.7009   -2865.2988    719.35408      611.176    782.42659            0    2112.9567   -4131.9419   -59.496593    38.408364    38.408364    38.408364            0            0            0   0.76333867 
   41000    55222.193    386.04963    781.05688    2300.3305   -814.22754     1486.103    2115.1342   -1600.8037    2819.1245   -2913.1123    691.03482     656.6173    751.23267            0    2098.8848   -4131.4331   -61.045811    38.080667    38.080667    38.080667            0            0            0   0.78321507 
   42000    57487.814    378.47848   -1295.8969    2255.2168     -646.361    1608.8558    522.37478   -1542.0758    2853.0108   -2819.9788    706.77086     671.0894    795.75753            0    2173.6178   -4130.9137   -58.639968    38.594486    38.594486    38.594486            0            0            0   0.75234821 
   43000    56743.505    381.78476    186.39723    2274.9177   -778.84548    1496.0722    1650.3244   -1579.2299    2830.4254   -2878.5692     700.1041    610.92399    788.69566            0    2099.7238   -4129.7647   -59.409154    38.427198    38.427198    38.427198            0            0            0   0.76221683 
   44000    56733.756    376.88537   -664.84976     2245.724   -680.69428    1565.0297    1014.9306   -1541.1936    2836.4501   -2836.7903    738.06932    641.14337    776.88331            0     2156.096   -4132.0467   -59.419362    38.424997    38.424997    38.424997            0            0            0    0.7623478 
   45000    56584.571    395.85257    1558.6082    2358.7427   -780.50811    1578.2345    2864.4415   -1578.6779    2827.0648   -2883.2022    723.95127    585.81013    792.93267            0    2102.6941   -4131.5891   -59.576021    38.391287    38.391287    38.391287            0            0            0   0.76435772 
   46000    56092.684    371.97283    -283.7385    2216.4519   -794.19902    1422.2529    1190.1394   -1529.1066    2747.7162   -2911.1622    726.76319    654.25907     735.9409            0    2116.9632   -4129.7718   -60.098454    38.279719    38.279719    38.279719            0            0            0   0.77106052 
   47000    57078.824    388.48995   -1572.8667    2314.8715   -713.76713    1601.1043    291.79334   -1597.7334    2869.0816   -2859.1992    732.62761     621.1333    791.67112            0     2145.432   -4130.5474   -59.060145    38.502743    38.502743    38.502743            0            0            0   0.75773906 
   48000    56657.438    375.87147    314.10669    2239.6825   -776.00945     1463.673    1723.2165   -1548.9341    2824.9436   -2856.1226    739.16385    628.63249    712.31685            0    2080.1132   -4132.1321     -59.4994     38.40776     38.40776     38.40776            0            0            0   0.76337469 
   49000    56304.953    390.34403    -630.0467    2325.9193   -721.51309    1604.4062    1087.0434   -1557.4336    2796.3063   -2889.4247    748.91641    650.11559    768.87965            0    2167.9117   -4128.2974   -59.871884    38.327945    38.327945    38.327945            0            0            0   0.76815364 
   50000     57106.03    387.40636    1261.2055    2308.4148   -783.71669    1524.6981    2575.0715   -1557.1591    2874.7645   -2816.2778    664.56313    625.65544    742.34254            0    2032.5611   -4133.8832   -59.032007    38.508859    38.508859    38.508859            0            0            0   0.75737806 
   50519    56583.078    392.16024    91.799697    2336.7414   -788.27992    1548.4615    1624.2152   -1577.7401    2800.5761   -2908.9103    715.35434     618.6938    786.58226            0    2120.6304   -4131.7464   -59.577593     38.39095     38.39095     38.39095            0            0            0    0.7643779 
Loop time of 99.2393 on 48 procs for 50000 steps with 2000 atoms

Performance: 43.531 ns/day, 0.551 hours/ns, 503.833 timesteps/s
41.8% CPU use with 48 MPI tasks x 1 OpenMP threads

MPI task timing breakdown:
Section |  min time  |  avg time  |  max time  |%varavg| %total
---------------------------------------------------------------
Pair    | 10.421     | 13.118     | 16.142     |  35.0 | 13.22
Bond    | 0.55121    | 0.64115    | 0.72164    |   5.1 |  0.65
Kspace  | 14.374     | 18.47      | 22.154     |  41.9 | 18.61
Neigh   | 3.3099     | 3.8873     | 4.4662     |  18.2 |  3.92
Comm    | 31.049     | 36.757     | 42.81      |  45.3 | 37.04
Output  | 0.055376   | 0.05605    | 0.062613   |   0.4 |  0.06
Modify  | 17.844     | 21.097     | 24.279     |  36.0 | 21.26
Other   |            | 5.213      |            |       |  5.25

Nlocal:    41.6667 ave 54 max 31 min
Histogram: 3 5 3 10 7 5 6 3 4 2
Nghost:    2339.81 ave 2404 max 2276 min
Histogram: 1 4 5 8 5 7 8 7 0 3
Neighs:    10367.7 ave 14182 max 7396 min
Histogram: 4 5 7 9 4 7 6 1 3 2

Total # of neighbors = 497650
Ave neighs/atom = 248.825
Ave special neighs/atom = 4.8
Neighbor list builds = 5204
Dangerous builds = 0

unfix npt_density

fix reshape_box all deform 1 x final 0.0 37.4495 y final 0.0 37.4495 z final 0.0 37.4495 units box

run 100000
Ewald initialization ...
  using 12-bit tables for long-range coulomb (src/kspace.cpp:332)
  G vector (1/distance) = 0.14849
  estimated absolute RMS force accuracy = 0.0381779
  estimated relative force accuracy = 0.000114972
  KSpace vectors: actual max1d max3d = 128 4 364
                  kxmax kymax kzmax  = 4 4 4
Per MPI rank memory allocation (min/avg/max) = 17.62 | 17.81 | 18.12 Mbytes
Step Volume Temp Press KinEng PotEng TotEng Enthalpy E_vdwl E_coul E_pair E_bond E_angle E_dihed E_impro E_mol E_long E_tail Lx Ly Lz Xy Xz Yz Density 
   50519    56583.078    392.16024    91.794037    2336.7414   -788.32084    1548.4206    1624.1696   -1577.7401    2830.1518   -2908.9512    715.35434     618.6938    786.58226            0    2120.6304    -4161.363   -59.577593     38.39095     38.39095     38.39095            0            0            0    0.7643779 
   51000    56563.058    392.16024    324.50515    2336.7414   -788.92668    1547.8148    1815.5037   -1577.2363    2829.8828   -2908.7188    714.51609     618.6938    786.58226            0    2119.7922   -4161.3653    -59.59868    38.386421    38.386421    38.386421            0            0            0   0.76464845 
   52000     56521.45    392.16024    811.17772    2336.7414    -789.6285    1547.1129    2215.7727    -1576.172    2829.6584   -2907.8837    712.97915     618.6938    786.58226            0    2118.2552   -4161.3702   -59.642553    38.377007    38.377007    38.377007            0            0            0   0.76521133 
   53000    56479.864    392.16024     1298.044    2336.7414   -790.12543     1546.616     2615.816   -1575.0997     2829.348   -2907.1267     711.7252     618.6938    786.58226            0    2117.0013    -4161.375   -59.686468    38.367592    38.367592    38.367592            0            0            0   0.76577476 
   54000    56438.298    392.16024    1785.6344    2336.7414   -790.29044     1546.451    3016.1972   -1574.0133    2829.0725   -2906.3207    710.75425     618.6938    786.58226            0    2116.0303   -4161.3799   -59.730426    38.358178    38.358178    38.358178            0            0            0   0.76633874 
   55000    56396.752    392.16024    2273.8634    2336.7414   -790.14572    1546.5957    3416.8228   -1572.9177    2828.8144   -2905.4881    710.06629     618.6938    786.58226            0    2115.3424   -4161.3848   -59.774428    38.348763    38.348763    38.348763            0            0            0   0.76690328 
   56000    56355.226    392.16024    2762.4096    2336.7414   -789.76656    1546.9749    3817.3528   -1571.8115    2828.4971    -2904.704    709.66133     618.6938    786.58226            0    2114.9374   -4161.3896   -59.818473    38.339349    38.339349    38.339349            0            0            0   0.76746838 
   57000    56313.721    392.16024    3252.1108    2336.7414   -788.95386    1547.7876    4218.6741   -1570.6896    2828.3148   -2903.7693    709.53936     618.6938    786.58226            0    2114.8154   -4161.3945   -59.862561    38.329934    38.329934    38.329934            0            0            0   0.76803403 
   58000    56272.236    392.16024    3741.8479    2336.7414   -787.97268    1548.7688    4619.6018   -1569.5559    2828.0061   -2902.9491    709.70039     618.6938    786.58226            0    2114.9765   -4161.3993   -59.906693     38.32052     38.32052     38.32052            0            0            0   0.76860023 
   59000    56230.772    392.16024     4231.483    2336.7414   -786.85389    1549.8875    5019.9919    -1568.406    2827.5358   -2902.2744    710.14442     618.6938    786.58226            0    2115.4205   -4161.4042   -59.950868    38.311105    38.311105    38.311105            0            0            0   0.76916699 
   60000    56189.328    392.16024    4723.0067    2336.7414   -785.13496    1551.6065    5421.9391   -1567.2519    2827.3785   -2901.2825    710.87144     618.6938    786.58226            0    2116.1475   -4161.4091   -59.995086    38.301691    38.301691    38.301691            0            0            0   0.76973431 
   61000    56147.905    392.16024    5215.1209    2336.7414   -783.11752    1553.6239    5824.0757   -1566.0847    2827.2236    -2900.275    711.88145     618.6938    786.58226            0    2117.1575   -4161.4139   -60.039348    38.292276    38.292276    38.292276            0            0            0   0.77030219 
   62000    56106.501    392.16024     5707.044    2336.7414   -780.98466    1555.7568    6225.5785   -1564.9039    2826.8875   -2899.4352    713.17446     618.6938    786.58226            0    2118.4505   -4161.4188   -60.083653    38.282862    38.282862    38.282862            0            0            0   0.77087063 
   63000    56065.119    392.16024    6200.1681    2336.7414   -778.40977    1558.3317     6627.913   -1563.7078    2826.6951   -2898.4363    714.75046     618.6938    786.58226            0    2120.0265   -4161.4237   -60.128002    38.273447    38.273447    38.273447            0            0            0   0.77143962 
   64000    56023.756    392.16024    6693.0986    2336.7414   -775.72145      1561.02    7029.6096   -1562.5022    2826.3237    -2897.607    716.60946     618.6938    786.58226            0    2121.8855   -4161.4285   -60.172395    38.264033    38.264033    38.264033            0            0            0   0.77200918 
   65000    55982.414    392.16024    7187.3078    2336.7414   -772.57411    1564.1673    7432.2167    -1561.282    2826.1138   -2896.6016    718.75146     618.6938    786.58226            0    2124.0275   -4161.4334   -60.216831    38.254618    38.254618    38.254618            0            0            0    0.7725793 
   66000    55941.092    392.16024     7682.076    2336.7414   -769.13694    1567.6045    7834.9759   -1560.0499    2825.8987   -2895.5895    721.17645     618.6938    786.58226            0    2126.4525   -4161.4383   -60.261311    38.245204    38.245204    38.245204            0            0            0   0.77314998 
   67000    55899.791    392.16024    8177.0812    2336.7414   -765.48726    1571.2542    8237.5469   -1558.8098    2825.6052   -2894.6478    723.88444     618.6938    786.58226            0    2129.1605   -4161.4431   -60.305835    38.235789    38.235789    38.235789            0            0            0   0.77372122 
   68000     55858.51    392.16024    8671.9525    2336.7414   -761.70791    1575.0335    8639.5448   -1557.5542    2825.1428   -2893.8594    726.87542     618.6938    786.58226            0    2132.1515    -4161.448   -60.350403    38.226375    38.226375    38.226375            0            0            0   0.77429302 
   69000    55817.249    392.16024    9167.7412    2336.7414   -757.55519    1579.1862    9042.0697   -1556.2848     2824.757   -2892.9806    730.14939     618.6938    786.58226            0    2135.4255   -4161.4528   -60.395015     38.21696     38.21696     38.21696            0            0            0   0.77486539 
   70000    55776.008    392.16024     9664.609    2336.7414   -752.99237    1583.7491    9445.2887   -1555.0037    2824.4866   -2891.9748    733.70636     618.6938    786.58226            0    2138.9824   -4161.4577   -60.439671    38.207546    38.207546    38.207546            0            0            0   0.77543832 
   71000    55734.788    392.16024    10161.619    2336.7414   -748.23684    1588.5046    9848.2213   -1553.7077     2824.111   -2891.0592    737.54633     618.6938    786.58226            0    2142.8224   -4161.4626   -60.484371    38.198131    38.198131    38.198131            0            0            0   0.77601181 
   72000    55693.588    392.16024    10660.118    2336.7414   -742.97817    1593.7633    10252.272   -1552.4036    2823.9475   -2889.9235    741.66929     618.6938    786.58226            0    2146.9454   -4161.4674   -60.529114    38.188717    38.188717    38.188717            0            0            0   0.77658588 
   73000    55652.409    392.16024    11158.403    2336.7414   -737.60784    1599.1336    10655.665   -1551.0809    2823.5941   -2888.9592    746.07525     618.6938    786.58226            0    2151.3513   -4161.4723   -60.573902    38.179302    38.179302    38.179302            0            0            0    0.7771605 
   74000     55611.25    392.16024    11656.867    2336.7414   -732.03884    1604.7026    11058.807   -1549.7493    2823.1474   -2888.0791     750.7642     618.6938    786.58226            0    2156.0403   -4161.4772   -60.618735    38.169888    38.169888    38.169888            0            0            0    0.7777357 
   75000    55570.111    392.16024    12156.639    2336.7414   -726.00806    1610.7334    11462.876   -1548.4045    2822.8662   -2887.0203    755.73615     618.6938    786.58226            0    2161.0122    -4161.482   -60.663611    38.160473    38.160473    38.160473            0            0            0   0.77831146 
   76000    55528.992    392.16024    12655.341    2336.7414   -720.06613    1616.6753    11865.393   -1547.0461    2822.1997   -2886.3333    760.99109     618.6938    786.58226            0    2166.2672   -4161.4869   -60.708532    38.151059    38.151059    38.151059            0            0            0   0.77888779 
   77000    55487.894    392.16024    13156.545    2336.7414    -713.3858    1623.3556     12270.08   -1545.6744    2821.9752   -2885.1909    766.52903     618.6938    786.58226            0    2171.8051   -4161.4918   -60.753497    38.141644    38.141644    38.141644            0            0            0   0.77946469 
   78000    55446.816    392.16024     13657.77    2336.7414   -706.54199    1630.1994    12674.349   -1544.2882    2821.6168    -2884.168    772.34996     618.6938    786.58226            0     2177.626   -4161.4966   -60.798507     38.13223     38.13223     38.13223            0            0            0   0.78004217 
   79000    55405.758    392.16024    14159.032    2336.7414   -699.53383    1637.2076    13078.217   -1542.8938    2821.1316   -2883.2638    778.45389     618.6938    786.58226            0    2183.7299   -4161.5015   -60.843561    38.122815    38.122815    38.122815            0            0            0   0.78062021 
   80000     55364.72    392.16024    14662.083    2336.7414   -691.95146      1644.79    13483.508   -1541.4819      2820.92   -2882.0683    784.84081     618.6938    786.58226            0    2190.1169   -4161.5064   -60.888659    38.113401    38.113401    38.113401            0            0            0   0.78119882 
   81000    55323.703    392.16024    15164.509    2336.7414   -684.35453    1652.3869    13887.711   -1540.0536    2820.4236   -2881.1413    791.51073     618.6938    786.58226            0    2196.7868   -4161.5112   -60.933802    38.103986    38.103986    38.103986            0            0            0     0.781778 
   82000    55282.706    392.16024    15668.003    2336.7414   -676.35582    1660.3856     14292.58   -1538.6177    2820.0382   -2880.0955    798.46364     618.6938    786.58226            0    2203.7397   -4161.5161    -60.97899    38.094572    38.094572    38.094572            0            0            0   0.78235776 
   83000    55241.729    392.16024    16173.084    2336.7414   -667.83252    1668.9089    14698.657   -1537.1679    2819.8808   -2878.8081    805.69955     618.6938    786.58226            0    2210.9756    -4161.521   -61.024222    38.085157    38.085157    38.085157            0            0            0   0.78293809 
   84000    55200.773    392.16024    16678.231    2336.7414   -659.13641     1677.605    15104.359   -1535.7045    2819.5994   -2877.6309    813.21845     618.6938    786.58226            0    2218.4945   -4161.5258     -61.0695    38.075743    38.075743    38.075743            0            0            0     0.783519 
   85000    55159.837    392.16024    17183.588    2336.7414   -650.23331    1686.5081     15509.84   -1534.2241     2819.225   -2876.5297    821.02035     618.6938    786.58226            0    2226.2964   -4161.5307   -61.114822    38.066328    38.066328    38.066328            0            0            0   0.78410047 
   86000    55118.921    392.16024    17689.829    2336.7414   -640.96962    1695.7718    15915.793   -1532.7317    2818.9163   -2875.3509    829.10524     618.6938    786.58226            0    2234.3813   -4161.5356   -61.160189    38.056914    38.056914    38.056914            0            0            0   0.78468253 
   87000    55078.025    392.16024    18196.773    2336.7414   -631.38565    1705.3558    16322.032    -1531.222    2818.6275   -2874.1348    837.47313     618.6938    786.58226            0    2242.7492   -4161.5404     -61.2056    38.047499    38.047499    38.047499            0            0            0   0.78526516 
   88000    55037.149    392.16024    18703.982    2336.7414   -621.58289    1715.1585    16728.104   -1529.6977      2818.26    -2872.983    846.12402     618.6938    786.58226            0    2251.4001   -4161.5453   -61.251057    38.038085    38.038085    38.038085            0            0            0   0.78584837 
   89000    54996.294    392.16024    19211.586    2336.7414   -611.53256    1725.2089     17134.14     -1528.16    2817.8436   -2871.8665     855.0579     618.6938    786.58226            0     2260.334   -4161.5502   -61.296559     38.02867     38.02867     38.02867            0            0            0   0.78643215 
   90000    54955.459    392.16024    19719.955    2336.7414   -601.15112    1735.5903    17540.523   -1526.6125    2817.4656    -2870.702    864.27477     618.6938    786.58226            0    2269.5508    -4161.555   -61.342106    38.019256    38.019256    38.019256            0            0            0   0.78701652 
   91000    54914.644    392.16024    20228.989    2336.7414   -590.45912    1746.2823    17947.149    -1525.049     2817.099   -2869.5098    873.77464     618.6938    786.58226            0    2279.0507   -4161.5599   -61.387698    38.009841    38.009841    38.009841            0            0            0   0.78760146 
   92000     54873.85    392.16024    20739.359    2336.7414   -579.30568    1757.4358    18354.705   -1523.4745       2816.9   -2868.1392    883.55751     618.6938    786.58226            0    2288.8336   -4161.5647   -61.433335    38.000427    38.000427    38.000427            0            0            0   0.78818698 
   93000    54833.075    392.16024    21249.881    2336.7414    -567.9583    1768.7831    18761.977   -1521.8801     2816.592   -2866.8577    893.62337     618.6938    786.58226            0    2298.8994   -4161.5696   -61.479017    37.991012    37.991012    37.991012            0            0            0   0.78877309 
   94000    54792.321    392.16024    21760.987    2336.7414   -556.32164    1780.4198    19169.402   -1520.2743    2816.2788   -2865.5699    903.97222     618.6938    786.58226            0    2309.2483   -4161.5745   -61.524745    37.981598    37.981598    37.981598            0            0            0   0.78935977 
   95000    54751.587    392.16024    22272.343    2336.7414    -544.4703    1792.2711    19576.642   -1518.6517    2815.8806   -2864.3504    914.60407     618.6938    786.58226            0    2319.8801   -4161.5793   -61.570518    37.972183    37.972183    37.972183            0            0            0   0.78994704 
   96000    54710.873    392.16024    22784.967    2336.7414   -532.17338    1804.5681    19984.738   -1517.0171     2815.633   -2862.9684    925.51892     618.6938    786.58226            0     2330.795   -4161.5842   -61.616337    37.962769    37.962769    37.962769            0            0            0   0.79053489 
   97000    54670.179    392.16024    23298.162    2336.7414   -519.59103    1817.1504    20392.973   -1515.3701    2815.3754   -2861.5838    936.71676     618.6938    786.58226            0    2341.9928   -4161.5891   -61.662201    37.953354    37.953354    37.953354            0            0            0   0.79112332 
   98000    54629.506    392.16024    23810.681    2336.7414   -507.00468    1829.7368    20800.071   -1513.7046    2814.8202   -2860.4783    948.19759     618.6938    786.58226            0    2353.4737   -4161.5939    -61.70811     37.94394     37.94394     37.94394            0            0            0   0.79171234 
   99000    54588.853    392.16024     24324.72    2336.7414   -493.91791    1842.8235    21208.279   -1512.0309    2814.4743   -2859.1554    959.96143     618.6938    786.58226            0    2365.2375   -4161.5988   -61.754065    37.934525    37.934525    37.934525            0            0            0   0.79230194 
  100000     54548.22    392.16024    24839.282    2336.7414   -480.55398    1856.1875    21616.577   -1510.3371    2814.1025   -2857.8383    972.00825     618.6938    786.58226            0    2377.2843   -4161.6037   -61.800066    37.925111    37.925111    37.925111            0            0            0   0.79289213 
  101000    54507.607    392.16024    25354.972    2336.7414   -466.77937    1869.9621    22025.581   -1508.6334    2813.8484   -2856.3935    984.33807     618.6938    786.58226            0    2389.6141   -4161.6085   -61.846112    37.915696    37.915696    37.915696            0            0            0    0.7934829 
  102000    54467.014    392.16024    25871.046    2336.7414   -452.75856    1883.9829    22434.533   -1506.9087    2813.5365   -2854.9855    996.95089     618.6938    786.58226            0     2402.227   -4161.6134   -61.892205    37.906282    37.906282    37.906282            0            0            0   0.79407426 
  103000    54426.441    392.16024    26387.266    2336.7414    -438.5487    1898.1927    22843.186   -1505.1686    2813.1154   -2853.6715    1009.8467     618.6938    786.58226            0    2415.1228   -4161.6183   -61.938343    37.896867    37.896867    37.896867            0            0            0   0.79466621 
  104000    54385.889    392.16024    26905.118    2336.7414   -423.81686    1912.9246    23253.053   -1503.4237    2812.9285   -2852.1184    1023.0255     618.6938    786.58226            0    2428.3016   -4161.6231   -61.984527    37.887453    37.887453    37.887453            0            0            0   0.79525875 
  105000    54345.357    392.16024    27422.843    2336.7414   -408.95601    1927.7854    23662.343   -1501.6582    2812.5668   -2850.7194    1036.4873     618.6938    786.58226            0    2441.7634    -4161.628   -62.030756    37.878038    37.878038    37.878038            0            0            0   0.79585188 
  106000    54304.844    392.16024    27940.759    2336.7414   -393.89391    1942.8475    24071.383   -1499.8723    2812.1031   -2849.4021    1050.2321     618.6938    786.58226            0    2455.5082   -4161.6329   -62.077032    37.868624    37.868624    37.868624            0            0            0   0.79644559 
  107000    54264.352    392.16024    28460.147    2336.7414   -378.34517    1958.3963     24481.47   -1498.0774     2811.834   -2847.8811    1064.2599     618.6938    786.58226            0     2469.536   -4161.6377   -62.123354    37.859209    37.859209    37.859209            0            0            0    0.7970399 
  108000    54223.881    392.16024    28981.031    2336.7414    -362.3025    1974.4389    24892.629   -1496.2654    2811.7588   -2846.1492    1078.5707     618.6938    786.58226            0    2483.8468   -4161.6426   -62.169722    37.849795    37.849795    37.849795            0            0            0    0.7976348 
  109000    54183.429    392.16024    29501.576    2336.7414   -346.18049    1990.5609    25302.993   -1494.4375    2811.4639    -2844.621    1093.1645     618.6938    786.58226            0    2498.4405   -4161.6475   -62.216136    37.840381    37.840381    37.840381            0            0            0   0.79823029 
  110000    54142.997    392.16024    30022.885    2336.7414   -329.72943     2007.012    25713.685   -1492.5909    2811.1965   -2843.0467    1108.0413     618.6938    786.58226            0    2513.3173   -4161.6523   -62.262596    37.830966    37.830966    37.830966            0            0            0   0.79882637 
  111000    54102.586    392.16024    30544.842    2336.7414   -312.97866    2023.7628    26124.581   -1490.7319    2810.9333   -2841.4557     1123.201     618.6938    786.58226            0    2528.4771   -4161.6572   -62.309103    37.821552    37.821552    37.821552            0            0            0   0.79942305 
  112000    54062.194    392.16024    31067.843    2336.7414   -295.83642     2040.905    26536.087   -1488.8553    2810.7611   -2839.7563    1138.6438     618.6938    786.58226            0    2543.9199   -4161.6621   -62.355656    37.812137    37.812137    37.812137            0            0            0   0.80002032 
  113000    54021.823    392.16024    31590.752    2336.7414   -278.56221    2058.1792    26947.044   -1486.9676    2810.4267   -2838.2078    1154.3696     618.6938    786.58226            0    2559.6456   -4161.6669   -62.402255    37.802723    37.802723    37.802723            0            0            0   0.80061819 
  114000    53981.472    392.16024    32114.194    2336.7414   -261.01259    2075.7288    27358.091   -1485.0634    2810.0683    -2836.667    1170.3783     618.6938    786.58226            0    2575.6544   -4161.6718   -62.448901    37.793308    37.793308    37.793308            0            0            0   0.80121665 
  115000    53941.141    392.16024    32638.383    2336.7414   -243.14158    2093.5999    27769.439   -1483.1462    2809.7352   -2835.0877    1186.6701     618.6938    786.58226            0    2591.9461   -4161.6767   -62.495593    37.783894    37.783894    37.783894            0            0            0   0.80181571 
  116000     53900.83    392.16024    33162.333    2336.7414   -225.16678    2111.5747    28180.097   -1481.2065    2809.2004   -2833.6877    1203.2448     618.6938    786.58226            0    2608.5209   -4161.6815   -62.542332    37.774479    37.774479    37.774479            0            0            0   0.80241537 
  117000    53860.539    392.16024    33687.245    2336.7414   -206.82315    2129.9183    28591.273   -1479.2557    2808.7403   -2832.2018    1220.1026     618.6938    786.58226            0    2625.3786   -4161.6864   -62.589117    37.765065    37.765065    37.765065            0            0            0   0.80301562 
  118000    53820.268    392.16024    34213.026    2336.7414   -188.13139      2148.61    29002.873   -1477.2928    2808.3333   -2830.6508    1237.2433     618.6938    786.58226            0    2642.5194   -4161.6913   -62.635949     37.75565     37.75565     37.75565            0            0            0   0.80361648 
  119000    53780.017    392.16024    34739.722    2336.7414   -169.07836    2167.6631    29414.944   -1475.3092    2807.9839   -2829.0215     1254.667     618.6938    786.58226            0    2659.9431   -4161.6961   -62.682828    37.746236    37.746236    37.746236            0            0            0   0.80421793 
  120000    53739.786    392.16024    35266.917    2336.7414   -149.75912    2186.9823    29827.064   -1473.3095    2807.6016   -2827.4089    1272.3738     618.6938    786.58226            0    2677.6498    -4161.701   -62.729754    37.736821    37.736821    37.736821            0            0            0   0.80481998 
  121000    53699.576    392.16024    35795.119    2336.7414   -130.05948     2206.682    30239.745   -1471.2919    2807.2988    -2825.699    1290.3635     618.6938    786.58226            0    2695.6396   -4161.7059   -62.776726    37.727407    37.727407    37.727407            0            0            0   0.80542264 
  122000    53659.385    392.16024    36323.808    2336.7414   -110.09577    2226.6457    30652.463   -1469.2565    2806.9592    -2824.008    1308.6362     618.6938    786.58226            0    2713.9123   -4161.7107   -62.823746    37.717992    37.717992    37.717992            0            0            0   0.80602589 
  123000    53619.215    392.16024    36852.805    2336.7414   -89.908553    2246.8329    31065.035   -1467.2012    2806.5403   -2822.3765    1327.1919     618.6938    786.58226            0     2732.468   -4161.7156   -62.870812    37.708578    37.708578    37.708578            0            0            0   0.80662975 
  124000    53579.064    392.16024    37382.804    2336.7414    -69.34651    2267.3949    31478.157   -1465.1375    2806.2047   -2820.6532    1346.0306     618.6938    786.58226            0    2751.3067   -4161.7205   -62.917925    37.699163    37.699163    37.699163            0            0            0   0.80723422 
  125000    53538.934    392.16024    37912.891    2336.7414   -48.611884    2288.1296     31890.91   -1463.0584    2805.7434   -2819.0403    1365.1523     618.6938    786.58226            0    2770.4284   -4161.7253   -62.965086    37.689749    37.689749    37.689749            0            0            0   0.80783928 
  126000    53498.824    392.16024    38443.987    2336.7414   -27.495234    2309.2462    32304.224   -1460.9564    2805.3583   -2817.3283     1384.557     618.6938    786.58226            0    2789.8331   -4161.7302   -63.012293    37.680334    37.680334    37.680334            0            0            0   0.80844495 
  127000    53458.733    392.16024    38975.638    2336.7414   -6.1027293    2330.6387    32717.636   -1458.8396    2804.9511   -2815.6235    1404.2447     618.6938    786.58226            0    2809.5208   -4161.7351   -63.059548     37.67092     37.67092     37.67092            0            0            0   0.80905123 
  128000    53418.663    392.16024    39508.581    2336.7414    15.729943    2352.4714    33131.884   -1456.7089    2804.6873   -2813.7616    1424.2154     618.6938    786.58226            0    2829.4915   -4161.7399    -63.10685    37.661505    37.661505    37.661505            0            0            0   0.80965811 
  129000    53378.613    392.16024    40041.736    2336.7414    37.763593     2374.505    33545.888   -1454.5612    2804.3244   -2811.9816    1444.4691     618.6938    786.58226            0    2849.7452   -4161.7448     -63.1542    37.652091    37.652091    37.652091            0            0            0    0.8102656 
  130000    53338.583    392.16024    40575.778    2336.7414    60.148427    2396.8899    33960.322   -1452.3943    2804.0105   -2810.1334    1465.0058     618.6938    786.58226            0    2870.2819   -4161.7496   -63.201597    37.642676    37.642676    37.642676            0            0            0    0.8108737 
  131000    53298.572    392.16024    41110.886    2336.7414    82.922413    2419.6638    34375.362   -1450.2113    2803.7866   -2808.1791    1485.8255     618.6938    786.58226            0    2891.1015   -4161.7545   -63.249041    37.633262    37.633262    37.633262            0            0            0   0.81148241 
  132000    53258.582    392.16024    41645.782    2336.7414    105.80239    2442.5438     34789.73    -1448.012    2803.3695   -2806.4018    1506.9282     618.6938    786.58226            0    2912.2042   -4161.7594   -63.296532    37.623847    37.623847    37.623847            0            0            0   0.81209173 
  133000    53218.612    392.16024    42181.839    2336.7414    129.09222    2465.8337    35204.798   -1445.7966    2803.0632   -2804.4977    1528.3138     618.6938    786.58226            0    2933.5899   -4161.7642   -63.344072    37.614433    37.614433    37.614433            0            0            0   0.81270165 
  134000    53178.662    392.16024    42718.423    2336.7414    152.64901    2489.3904     35619.93    -1443.569    2802.7286   -2802.6095    1549.9825     618.6938    786.58226            0    2955.2585   -4161.7691   -63.391659    37.605018    37.605018    37.605018            0            0            0   0.81331219 
  135000    53138.732    392.16024    43255.357    2336.7414    176.43839    2513.1798    36034.953   -1441.3198     2802.322   -2800.7718    1571.9341     618.6938    786.58226            0    2977.2102    -4161.774   -63.439293    37.595604    37.595604    37.595604            0            0            0   0.81392334 
  136000    53098.822    392.16024    43792.933    2336.7414    200.52415    2537.2656    36450.156   -1439.0489     2801.907   -2798.9207    1594.1688     618.6938    786.58226            0    2999.4449   -4161.7788   -63.486975    37.586189    37.586189    37.586189            0            0            0    0.8145351 
  137000    53058.931    392.16024    44330.961    2336.7414     224.8589    2561.6003    36865.346   -1436.7684    2801.4486   -2797.1036    1616.6864     618.6938    786.58226            0    3021.9625   -4161.7837   -63.534706    37.576775    37.576775    37.576775            0            0            0   0.81514748 
  138000    53019.061    392.16024    44870.545    2336.7414    249.69502    2586.4365    37281.626    -1434.459    2801.1794   -2795.0681    1639.4871     618.6938    786.58226            0    3044.7631   -4161.7886   -63.582483     37.56736     37.56736     37.56736            0            0            0   0.81576047 
  139000    52979.211    392.16024     45410.82    2336.7414    274.83265    2611.5741    37698.129   -1432.1398    2800.9191   -2793.0141    1662.5707     618.6938    786.58226            0    3067.8468   -4161.7934   -63.630309    37.557946    37.557946    37.557946            0            0            0   0.81637407 
  140000    52939.381    392.16024    45951.615    2336.7414    300.23764    2636.9791    38114.685   -1429.8014     2800.624   -2790.9758    1685.9374     618.6938    786.58226            0    3091.2134   -4161.7983   -63.678183    37.548531    37.548531    37.548531            0            0            0   0.81698829 
  141000     52899.57    392.16024    46492.369    2336.7414    325.78425    2662.5257    38530.736   -1427.4477    2800.1721   -2789.0788     1709.587     618.6938    786.58226            0     3114.863   -4161.8032   -63.726105    37.539117    37.539117    37.539117            0            0            0   0.81760313 
  142000     52859.78    392.16024    47034.415    2336.7414    351.76786    2688.5093    38947.606   -1425.0753    2799.8555   -2787.0278    1733.5196     618.6938    786.58226            0    3138.7957    -4161.808   -63.774075    37.529702    37.529702    37.529702            0            0            0   0.81821858 
  143000     52820.01    392.16024    47576.283    2336.7414    377.86552     2714.607    39363.839   -1422.6819     2799.349   -2785.1458    1757.7352     618.6938    786.58226            0    3163.0113   -4161.8129   -63.822093    37.520288    37.520288    37.520288            0            0            0   0.81883465 
  144000    52780.259    392.16024     48118.87    2336.7414    404.27206    2741.0135    39780.319   -1420.2724    2798.8523   -2783.2378    1782.2338     618.6938    786.58226            0    3187.5099   -4161.8178    -63.87016    37.510873    37.510873    37.510873            0            0            0   0.81945134 
  145000    52740.529    392.16024    48663.497    2336.7414    431.28043    2768.0219    40198.354   -1417.8417    2798.6533   -2781.0111    1807.0154     618.6938    786.58226            0    3212.2915   -4161.8226   -63.918274    37.501459    37.501459    37.501459            0            0            0   0.82006865 
  146000    52700.818    392.16024    49208.786    2336.7414    458.58237    2795.3238    40616.575      -1415.4    2798.4537   -2778.7737    1832.0801     618.6938    786.58226            0    3237.3561   -4161.8275   -63.966437    37.492044    37.492044    37.492044            0            0            0   0.82068658 
  147000    52661.128    392.16024    49754.225    2336.7414     486.0701    2822.8115    41034.481   -1412.9361    2798.1349   -2776.6336    1857.4277     618.6938    786.58226            0    3262.7037   -4161.8324   -64.014649     37.48263     37.48263     37.48263            0            0            0   0.82130513 
  148000    52621.457    392.16024    50299.739    2336.7414      513.724    2850.4654    41451.993   -1410.4567    2797.6836   -2774.6103    1883.0582     618.6938    786.58226            0    3288.3343   -4161.8372   -64.062908    37.473215    37.473215    37.473215            0            0            0    0.8219243 
  149000    52581.806    392.16024    50846.146    2336.7414    541.72844    2878.4699    41869.924   -1407.9502    2797.2729   -2772.5195    1908.9718     618.6938    786.58226            0    3314.2479   -4161.8421   -64.111217    37.463801    37.463801    37.463801            0            0            0   0.82254409 
  150000    52542.175    392.16024    51393.769    2336.7414    570.14595    2906.8874    42288.583   -1405.4358    2796.9843   -2770.2985    1935.1684     618.6938    786.58226            0    3340.4445    -4161.847   -64.159574    37.454386    37.454386    37.454386            0            0            0   0.82316451 
  150519    52521.615    392.16024    51678.595    2336.7414    585.08883    2921.8303    42506.284   -1404.1207    2796.9069   -2769.0632     1948.876     618.6938    786.58226            0    3354.1521   -4161.8495    -64.18469      37.4495      37.4495      37.4495            0            0            0   0.82348675 
Loop time of 144.306 on 48 procs for 100000 steps with 2000 atoms

Performance: 59.873 ns/day, 0.401 hours/ns, 692.971 timesteps/s
44.7% CPU use with 48 MPI tasks x 1 OpenMP threads

MPI task timing breakdown:
Section |  min time  |  avg time  |  max time  |%varavg| %total
---------------------------------------------------------------
Pair    | 18.69      | 25.949     | 35.481     |  82.5 | 17.98
Bond    | 0.81621    | 1.0907     | 1.3394     |  11.6 |  0.76
Kspace  | 24.481     | 36.903     | 47.043     |  81.6 | 25.57
Neigh   | 0.0067357  | 0.0078434  | 0.0088315  |   0.8 |  0.01
Comm    | 54.505     | 65.427     | 78.229     |  69.2 | 45.34
Output  | 0.10686    | 0.11363    | 0.12621    |   1.1 |  0.08
Modify  | 0.45511    | 0.51962    | 0.7214     |   8.7 |  0.36
Other   |            | 14.3       |            |       |  9.91

Nlocal:    41.6667 ave 55 max 31 min
Histogram: 4 3 10 3 9 6 3 6 3 1
Nghost:    2473.4 ave 2560 max 2397 min
Histogram: 2 3 7 11 5 4 9 1 4 2
Neighs:    11148.7 ave 14349 max 8030 min
Histogram: 3 4 6 9 5 4 3 6 4 4

Total # of neighbors = 535136
Ave neighs/atom = 267.568
Ave special neighs/atom = 4.8
Neighbor list builds = 10
Dangerous builds = 0
# >>>>>>>>>  Equilibration run <<<<<<<<<<<<<<<<<<<<<<<<<<<<<<<<<<

fix             NVT_equib all nvt temp ${simulationTemp} ${simulationTemp} 100
fix             NVT_equib all nvt temp 383 ${simulationTemp} 100
fix             NVT_equib all nvt temp 383 383 100

print           "Step Density Temperature Pressure KinEng PotEng TotEng" file Properties_equib_octanol_383.txt
Step Density Temperature Pressure KinEng PotEng TotEng
fix             PRINT_equib all print ${printfreq} "$(v_step) $(v_density) $(v_temp) $(v_press) $(v_pe) $(v_ke) $(v_etotal) $(v_enthalpy)" append Properties_equib_octanol_383.txt title ""
fix             PRINT_equib all print 1000 "$(v_step) $(v_density) $(v_temp) $(v_press) $(v_pe) $(v_ke) $(v_etotal) $(v_enthalpy)" append Properties_equib_octanol_383.txt title ""
# The 'print' and fix print' commands as used above will create a file named 'Properties_equib.txt' which allows you to quickly make plots to test for equilibration


run             ${NVT_equib}
run             1000000
Ewald initialization ...
  using 12-bit tables for long-range coulomb (src/kspace.cpp:332)
  G vector (1/distance) = 0.149129
  estimated absolute RMS force accuracy = 0.0367822
  estimated relative force accuracy = 0.000110768
  KSpace vectors: actual max1d max3d = 128 4 364
                  kxmax kymax kzmax  = 4 4 4
Per MPI rank memory allocation (min/avg/max) = 17.62 | 17.81 | 18.12 Mbytes
Step Volume Temp Press KinEng PotEng TotEng Enthalpy E_vdwl E_coul E_pair E_bond E_angle E_dihed E_impro E_mol E_long E_tail Lx Ly Lz Xy Xz Yz Density 
  150519    52521.615    392.16024    51679.152    2336.7414    585.10923    2921.8507    42506.731   -1404.1181    2814.7088   -2769.0693    1948.9025     618.6938    786.58226            0    3354.1785   -4179.6601    -64.18469      37.4495      37.4495      37.4495            0            0            0   0.82348675 
151000 0.8234867517405469739 381.96283013653800253 -9843.1809718070308008 -954.75783173258002989 2275.9787269520697919 1321.2208952195001075 -6218.3986276429595819
  151000    52521.615    381.96283    -9843.181    2275.9787   -954.75783    1321.2209   -6218.3986   -1693.9524     2776.816   -3095.2711    899.61262    537.95254    702.94811            0    2140.5133   -4178.1347    -64.18469      37.4495      37.4495      37.4495            0            0            0   0.82348675 
152000 0.8234867517405469739 377.22153742335001425 -2075.1412241470998197 -968.81153615828100101 2247.7270739061200402 1278.9155377478400624 -310.58843775449099667
  152000    52521.615    377.22154   -2075.1412    2247.7271   -968.81154    1278.9155   -310.58844   -1706.6072    2790.6785   -3095.8689    860.29986    563.77773    702.97975            0    2127.0573   -4179.9402    -64.18469      37.4495      37.4495      37.4495            0            0            0   0.82348675 
153000 0.8234867517405469739 377.71602417648199435 -1665.5205533729899798 -1031.0617136630201003 2250.6735421016901455 1219.6118284386700452 -56.13341244501980043
  153000    52521.615    377.71602   -1665.5206    2250.6735   -1031.0617    1219.6118   -56.133412   -1714.9968    2778.4362    -3114.932    812.05256    569.36271    702.45502            0    2083.8703   -4178.3713    -64.18469      37.4495      37.4495      37.4495            0            0            0   0.82348675 
154000 0.8234867517405469739 378.86381927431801842 29.92612258584560081 -997.76230676027398658 2257.5128390684599253 1259.7505323081900315 1282.6731605457600836
  154000    52521.615    378.86382    29.926123    2257.5128   -997.76231    1259.7505    1282.6732   -1729.0021    2748.9992   -3160.9156    839.57232    613.72278    709.85815            0    2163.1532   -4180.9127    -64.18469      37.4495      37.4495      37.4495            0            0            0   0.82348675 
155000 0.8234867517405469739 380.83946512969902187 2228.3758952642901932 -1076.9786828645299011 2269.2850000853700294 1192.306317220839901 2899.1840483458399831
  155000    52521.615    380.83947    2228.3759     2269.285   -1076.9787    1192.3063     2899.184   -1722.9852    2750.0861   -3153.1047    838.46134    590.76614    646.89857            0    2076.1261   -4180.2057    -64.18469      37.4495      37.4495      37.4495            0            0            0   0.82348675 
156000 0.8234867517405469739 380.8577510307529792 1836.9051215743800185 -1015.8449348732000317 2269.3939591738399031 1253.5490243006399851 2660.5703679025000383
  156000    52521.615    380.85775    1836.9051     2269.394   -1015.8449     1253.549    2660.5704   -1764.5156    2832.9048   -3111.4484    826.98658    571.51325    697.10363            0    2095.6035   -4179.8377    -64.18469      37.4495      37.4495      37.4495            0            0            0   0.82348675 
157000 0.8234867517405469739 374.33943469051700959 -1107.2762712882599772 -1025.5632269577699844 2230.5536633245901612 1204.9904363668199494 356.84573435239502714
  157000    52521.615    374.33943   -1107.2763    2230.5537   -1025.5632    1204.9904    356.84573   -1738.4626    2781.9262    -3134.294    839.86711    594.34862    674.51504            0    2108.7308   -4177.7576    -64.18469      37.4495      37.4495      37.4495            0            0            0   0.82348675 
158000 0.8234867517405469739 376.88217601208697261 -1788.5543492377300936 -1035.908341189470093 2245.7049416674699387 1209.7966004780000731 -160.18931442464401016
  158000    52521.615    376.88218   -1788.5543    2245.7049   -1035.9083    1209.7966   -160.18931    -1769.007    2818.3833   -3128.6276    833.94686    587.35888    671.41355            0    2092.7193   -4178.0039    -64.18469      37.4495      37.4495      37.4495            0            0            0   0.82348675 
159000 0.8234867517405469739 380.3562217114929922 248.81407203060601319 -946.17271504058498977 2266.4055268670299483 1320.2328118264499608 1510.8178920376099086
  159000    52521.615    380.35622    248.81407    2266.4055   -946.17272    1320.2328    1510.8179   -1732.2503    2818.1427   -3094.2463    847.35832    604.49447    696.22077            0    2148.0736   -4180.1386    -64.18469      37.4495      37.4495      37.4495            0            0            0   0.82348675 
160000 0.8234867517405469739 384.66157858297799521 185.75818793434601162 -1045.2124066584599404 2292.0595954787199844 1246.8471888202700484 1389.1331088183699194
  160000    52521.615    384.66158    185.75819    2292.0596   -1045.2124    1246.8472    1389.1331   -1783.9657    2862.9345    -3099.793    815.67141    578.92247    659.98673            0    2054.5806   -4178.7618    -64.18469      37.4495      37.4495      37.4495            0            0            0   0.82348675 
161000 0.8234867517405469739 368.19514014697398352 169.75239036628400413 -1040.0305646944200362 2193.9420284483999239 1153.9114637539798878 1283.9373608825599149
  161000    52521.615    368.19514    169.75239     2193.942   -1040.0306    1153.9115    1283.9374   -1728.0719    2791.3783   -3114.4124    795.60348    578.51918    700.25922            0    2074.3819   -4177.7188    -64.18469      37.4495      37.4495      37.4495            0            0            0   0.82348675 
162000 0.8234867517405469739 386.25397993910797823 1697.4536966956700326 -1057.2697461083600956 2301.5481407647298511 1244.2783946563599784 2544.4835892391301968
  162000    52521.615    386.25398    1697.4537    2301.5481   -1057.2697    1244.2784    2544.4836   -1760.0111    2803.6256   -3135.5166    780.67848    606.26931    691.29908            0    2078.2469   -4179.1311    -64.18469      37.4495      37.4495      37.4495            0            0            0   0.82348675 
163000 0.8234867517405469739 390.75935494579800888 385.97977862510299474 -1042.7005485992599461 2328.3940452955498586 1285.6934966962899125 1581.3439254232600888
  163000    52521.615    390.75935    385.97978     2328.394   -1042.7005    1285.6935    1581.3439   -1717.7242    2785.5753    -3113.254    773.28544    601.65951     695.6085            0    2070.5535   -4181.1051    -64.18469      37.4495      37.4495      37.4495            0            0            0   0.82348675 
164000 0.8234867517405469739 388.76502523424301216 1984.4247504143299921 -969.30369097182403948 2316.5105539191699791 1347.2068629473399142 2867.2243890630497845
  164000    52521.615    388.76503    1984.4248    2316.5106   -969.30369    1347.2069    2867.2244   -1731.2133     2840.715   -3070.6443    767.62183    640.31479    693.40398            0    2101.3406    -4180.146    -64.18469      37.4495      37.4495      37.4495            0            0            0   0.82348675 
165000 0.8234867517405469739 379.72764457072997857 1077.0390545049999673 -998.11808784161303265 2262.6600624193201838 1264.5419745777001026 2089.525758325049992
  165000    52521.615    379.72764    1077.0391    2262.6601   -998.11809     1264.542    2089.5258   -1731.8158    2791.0647     -3118.63    783.47062     592.5472    744.49409            0    2120.5119   -4177.8789    -64.18469      37.4495      37.4495      37.4495            0            0            0   0.82348675 
166000 0.8234867517405469739 370.6745837461809856 75.551093008662306261 -965.14952946648395482 2208.7161384958499184 1243.5666090293700563 1301.4367728974600595
  166000    52521.615    370.67458    75.551093    2208.7161   -965.14953    1243.5666    1301.4368   -1687.2352     2805.951   -3059.4008    790.28132    595.58755    708.38241            0    2094.2513   -4178.1166    -64.18469      37.4495      37.4495      37.4495            0            0            0   0.82348675 
167000 0.8234867517405469739 398.32325757792000331 2015.1742455542600965 -973.69750940875394463 2373.4646127046698894 1399.7671032959099193 2943.3379395193201162
  167000    52521.615    398.32326    2015.1742    2373.4646   -973.69751    1399.7671    2943.3379   -1698.6357    2786.6975    -3088.747    785.66074    607.25271    722.13607            0    2115.0495   -4176.8088    -64.18469      37.4495      37.4495      37.4495            0            0            0   0.82348675 
168000 0.8234867517405469739 380.72423005830199827 514.92433278343196434 -875.38016763212397109 2268.5983558613597779 1393.2181882292300088 1787.6367774404600368
  168000    52521.615    380.72423    514.92433    2268.5984   -875.38017    1393.2182    1787.6368   -1716.6467    2842.6754   -3052.9647    796.83768    637.46456    743.28229            0    2177.5845   -4178.9933    -64.18469      37.4495      37.4495      37.4495            0            0            0   0.82348675 
169000 0.8234867517405469739 378.13343840966297194 115.2350030853440046 -1000.489852738799982 2253.1607629517097848 1252.6709102129100302 1340.9379126654600896
  169000    52521.615    378.13344      115.235    2253.1608   -1000.4899    1252.6709    1340.9379   -1678.5847    2751.8366   -3104.5066    796.40629    586.74391    720.86651            0    2104.0167   -4177.7585    -64.18469      37.4495      37.4495      37.4495            0            0            0   0.82348675 
170000 0.8234867517405469739 384.68552290676598204 -644.10682116892303384 -936.29012637735195312 2292.2022710672199537 1355.9121446898600425 862.54314359117199729
  170000    52521.615    384.68552   -644.10682    2292.2023   -936.29013    1355.9121    862.54314   -1703.0892     2819.996   -3059.8463    816.08559    602.11624    705.35438            0    2123.5562   -4176.7532    -64.18469      37.4495      37.4495      37.4495            0            0            0   0.82348675 
171000 0.8234867517405469739 379.65148690415202282 1451.4167881771800239 -939.1376579074719757 2262.2062663550200341 1323.0686084475401003 2434.8159575305699036
  171000    52521.615    379.65149    1451.4168    2262.2063   -939.13766    1323.0686     2434.816   -1745.6183    2868.2067   -3057.5847    797.57611    589.82268    731.04822            0     2118.447   -4180.1731    -64.18469      37.4495      37.4495      37.4495            0            0            0   0.82348675 
172000 0.8234867517405469739 372.21364486054602594 772.7942564179160172 -966.53420462721601325 2217.8868485215498367 1251.3526438943299581 1843.2928591085999415
  172000    52521.615    372.21364    772.79426    2217.8868    -966.5342    1251.3526    1843.2929   -1733.8749    2861.0888   -3050.4535    766.92355    583.69257     733.3032            0    2083.9193   -4177.6674    -64.18469      37.4495      37.4495      37.4495            0            0            0   0.82348675 
173000 0.8234867517405469739 384.21060903861501856 -1152.8949595527499241 -899.57596993055199164 2289.3724306331100706 1389.796460702559898 506.70903502679897201
  173000    52521.615    384.21061    -1152.895    2289.3724   -899.57597    1389.7965    506.70904   -1755.8218    2918.6926   -3017.1549    776.18129    601.06294    740.33474            0     2117.579   -4180.0258    -64.18469      37.4495      37.4495      37.4495            0            0            0   0.82348675 
174000 0.8234867517405469739 380.30557243594398642 -672.41068635041699508 -885.38100137161995917 2266.103726103739973 1380.7227247321200139 865.67370219461804481
  174000    52521.615    380.30557   -672.41069    2266.1037     -885.381    1380.7227     865.6737   -1710.8244    2837.0253    -3053.879    780.96043    631.53487    756.00266            0     2168.498   -4180.0798    -64.18469      37.4495      37.4495      37.4495            0            0            0   0.82348675 
175000 0.8234867517405469739 382.63514369461501019 -1170.7110275102500054 -962.03427376982995156 2279.984800934390023 1317.9505271645600715 421.2164587848139945
  175000    52521.615    382.63514    -1170.711    2279.9848   -962.03427    1317.9505    421.21646   -1716.0684    2795.0085   -3101.2466    760.24497    624.06112    754.90624            0    2139.2123   -4180.1867    -64.18469      37.4495      37.4495      37.4495            0            0            0   0.82348675 
176000 0.8234867517405469739 370.77017465443901756 -636.92629889887098216 -982.45675811526200505 2209.2857302375600739 1226.8289721223000015 738.96006352893596159
  176000    52521.615    370.77017    -636.9263    2209.2857   -982.45676     1226.829    738.96006   -1713.8044     2853.962   -3038.5372    754.85968    579.45702    721.76379            0    2056.0805   -4178.6948    -64.18469      37.4495      37.4495      37.4495            0            0            0   0.82348675 
177000 0.8234867517405469739 379.64401086792798878 1160.9146827948600276 -908.93028522904796773 2262.16171935184002 1353.2314341227900059 2242.4617583287399611
  177000    52521.615    379.64401    1160.9147    2262.1617   -908.93029    1353.2314    2242.4618     -1717.76    2823.0003   -3075.1448    797.01529    617.78885    751.41041            0    2166.2146   -4180.3851    -64.18469      37.4495      37.4495      37.4495            0            0            0   0.82348675 
178000 0.8234867517405469739 385.81688139297301632 968.94249817125898971 -920.11640662732702367 2298.9436281941498237 1378.8272215668200715 2121.0118666188100178
  178000    52521.615    385.81688     968.9425    2298.9436   -920.11641    1378.8272    2121.0119    -1738.945    2882.7778   -3032.4198    784.38156    602.45499    725.46683            0    2112.3034   -4176.2525    -64.18469      37.4495      37.4495      37.4495            0            0            0   0.82348675 
179000 0.8234867517405469739 382.60529001865501186 1669.8523237381800755 -856.46955071054503605 2279.8069136478698056 1423.3373629373299991 2702.4006267759400544
  179000    52521.615    382.60529    1669.8523    2279.8069   -856.46955    1423.3374    2702.4006   -1716.5594     2819.542   -3075.9762    801.76513    670.34806     747.3935            0    2219.5067   -4178.9588    -64.18469      37.4495      37.4495      37.4495            0            0            0   0.82348675 
180000 0.8234867517405469739 378.66691190190601901 734.03626167915297174 -913.56676136210603545 2256.3395390627301822 1342.7727777006300585 1905.0253812945900336
  180000    52521.615    378.66691    734.03626    2256.3395   -913.56676    1342.7728    1905.0254   -1691.1717    2785.9694     -3082.75    766.26063    625.84473    777.07791            0    2169.1833   -4177.5477    -64.18469      37.4495      37.4495      37.4495            0            0            0   0.82348675 
181000 0.8234867517405469739 386.94583877079600143 -1332.3821889354899213 -960.29554325005597093 2305.6706779823198303 1345.3751347322699985 324.80517951299901824
  181000    52521.615    386.94584   -1332.3822    2305.6707   -960.29554    1345.3751    324.80518   -1739.2993    2854.9526   -3063.1405    770.64706    582.74193    749.45593            0    2102.8449   -4178.7938    -64.18469      37.4495      37.4495      37.4495            0            0            0   0.82348675 
182000 0.8234867517405469739 373.28709893933398689 988.57369404789199052 -940.54016022509404138 2224.2831741713698648 1283.7430139462699117 2040.9646422776099826
  182000    52521.615     373.2871    988.57369    2224.2832   -940.54016     1283.743    2040.9646   -1715.2806    2841.0897   -3054.4551    758.90247    631.95503    723.05746            0     2113.915   -4180.2642    -64.18469      37.4495      37.4495      37.4495            0            0            0   0.82348675 
183000 0.8234867517405469739 380.64764258366301419 232.0148765563810116 -939.02698940809102623 2268.1419987258600486 1329.1150093177700455 1506.8323445866599286
  183000    52521.615    380.64764    232.01488     2268.142   -939.02699     1329.115    1506.8323   -1717.7618    2851.2278    -3046.868    735.46128     599.3306    773.04911            0     2107.841   -4180.3339    -64.18469      37.4495      37.4495      37.4495            0            0            0   0.82348675 
184000 0.8234867517405469739 375.72374152593698682 1768.2608647731399287 -1028.2209595710799022 2238.8022484234697913 1210.5812888523898891 2565.0229247161400963
  184000    52521.615    375.72374    1768.2609    2238.8022    -1028.221    1210.5813    2565.0229   -1715.1459    2752.4194     -3141.54    733.67027    628.09919    751.54962            0    2113.3191   -4178.8135    -64.18469      37.4495      37.4495      37.4495            0            0            0   0.82348675 
185000 0.8234867517405469739 381.55838080086601849 1730.5696893410699886 -847.84088581444495958 2273.568759249750201 1425.7278734352998981 2751.2990534025998386
  185000    52521.615    381.55838    1730.5697    2273.5688   -847.84089    1425.7279    2751.2991   -1674.7816    2796.4092   -3057.2273    773.35821    628.50779    807.52046            0    2209.3865    -4178.855    -64.18469      37.4495      37.4495      37.4495            0            0            0   0.82348675 
186000 0.8234867517405469739 383.92493383306299393 745.05985616369900981 -1012.3476787228199782 2287.6701951291502155 1275.3225164063198918 1846.0189054417899115
  186000    52521.615    383.92493    745.05986    2287.6702   -1012.3477    1275.3225    1846.0189   -1640.3928    2718.9375   -3100.2262    736.93147    617.12245    733.82462            0    2087.8785   -4178.7709    -64.18469      37.4495      37.4495      37.4495            0            0            0   0.82348675 
187000 0.8234867517405469739 390.45886892850302274 2437.6922648076601945 -906.8504870176300301 2326.603557506819925 1419.7530704891898949 3286.9616733907000707
[...]
4123000 0.8234867517405469739 389.12357177826299903 1779.0116674543000954 -891.19529183301904141 2318.6470034436401875 1427.4517116106198955 2790.1281815197298783
 4123000    52521.615    389.12357    1779.0117     2318.647   -891.19529    1427.4517    2790.1282   -1652.3828    2777.8354   -3054.9246    741.14235    635.13694    787.45002            0    2163.7293   -4180.3772    -64.18469      37.4495      37.4495      37.4495            0            0            0   0.82348675 
4124000 0.8234867517405469739 375.96940960315998836 233.34285997562301418 -956.4447467692009468 2240.2660958807000497 1283.8213491115000124 1462.5558849929200278
4124000 0.8234867517405469739 375.96940960315998836 233.34285997562301418 -956.4447467692009468 2240.2660958807000497 1283.8213491115000124 1462.5558849929200278
 4124000    52521.615    375.96941    233.34286    2240.2661   -956.44475    1283.8213    1462.5559   -1713.8569    2844.8975   -3049.4489    706.69814    611.15727    775.14877            0    2093.0042   -4180.4895    -64.18469      37.4495      37.4495      37.4495            0            0            0   0.82348675 
4125000 0.8234867517405469739 380.0933700993380171 93.369328695145199504 -939.32244380098200054 2264.8392889234200993 1325.5168451224399178 1397.0353121182999985
4125000 0.8234867517405469739 380.0933700993380171 93.369328695145199504 -939.32244380098200054 2264.8392889234200993 1325.5168451224399178 1397.0353121182999985
 4125000    52521.615    380.09337    93.369329    2264.8393   -939.32244    1325.5168    1397.0353   -1654.6882    2756.4312   -3077.6852    729.56144    653.91179     754.8895            0    2138.3627   -4179.4282    -64.18469      37.4495      37.4495      37.4495            0            0            0   0.82348675 
4126000 0.8234867517405469739 391.65797847176099822 -456.15368835957599458 -948.52546423738999692 2333.7486187442300434 1385.2231545068400465 1035.8213438490599856
4126000 0.8234867517405469739 391.65797847176099822 -456.15368835957599458 -948.52546423738999692 2333.7486187442300434 1385.2231545068400465 1035.8213438490599856
 4126000    52521.615    391.65798   -456.15369    2333.7486   -948.52546    1385.2232    1035.8213   -1693.7947    2794.5233   -3078.5788    748.03678    595.69637    786.32016            0    2130.0533   -4179.3074    -64.18469      37.4495      37.4495      37.4495            0            0            0   0.82348675 
4127000 0.8234867517405469739 393.24795221963802305 427.09514346795202755 -884.62164578474801147 2343.2226987883200309 1458.6010530035700867 1785.7447772766299749
4127000 0.8234867517405469739 393.24795221963802305 427.09514346795202755 -884.62164578474801147 2343.2226987883200309 1458.6010530035700867 1785.7447772766299749
 4127000    52521.615    393.24795    427.09514    2343.2227   -884.62165    1458.6011    1785.7448   -1714.6715    2848.6071   -3046.7382    743.11162    630.23186    788.77312            0    2162.1166   -4180.6738    -64.18469      37.4495      37.4495      37.4495            0            0            0   0.82348675 
4128000 0.8234867517405469739 393.47894453916200064 -47.34278688818540104 -992.23199798249197556 2344.5990986991100726 1352.3671007166099116 1316.1037625425799433
4128000 0.8234867517405469739 393.47894453916200064 -47.34278688818540104 -992.23199798249197556 2344.5990986991100726 1352.3671007166099116 1316.1037625425799433
 4128000    52521.615    393.47894   -47.342787    2344.5991     -992.232    1352.3671    1316.1038   -1695.4172     2821.665   -3053.8268    704.90221    589.76119    766.93143            0    2061.5948   -4180.0746    -64.18469      37.4495      37.4495      37.4495            0            0            0   0.82348675 
4129000 0.8234867517405469739 388.50514886467999531 627.40544860858403808 -938.00723660614301025 2314.9620443729500039 1376.9548077668100632 1857.5309937201600405
4129000 0.8234867517405469739 388.50514886467999531 627.40544860858403808 -938.00723660614301025 2314.9620443729500039 1376.9548077668100632 1857.5309937201600405
 4129000    52521.615    388.50515    627.40545     2314.962   -938.00724    1376.9548     1857.531   -1727.3039    2872.4022   -3034.9405    737.99999     596.3855    762.54779            0    2096.9333   -4180.0388    -64.18469      37.4495      37.4495      37.4495            0            0            0   0.82348675 
4130000 0.8234867517405469739 385.29223214282200161 -1017.6477510590699467 -968.9041307475049507 2295.8174325587501698 1326.913301811249994 547.42170521679099693
4130000 0.8234867517405469739 385.29223214282200161 -1017.6477510590699467 -968.9041307475049507 2295.8174325587501698 1326.913301811249994 547.42170521679099693
 4130000    52521.615    385.29223   -1017.6478    2295.8174   -968.90413    1326.9133    547.42171   -1632.0626     2770.122   -3040.3103     720.3964    608.31506    742.69469            0    2071.4062   -4178.3697    -64.18469      37.4495      37.4495      37.4495            0            0            0   0.82348675 
4131000 0.8234867517405469739 376.5820483752789869 1180.2423139146999347 -915.89823324649103142 2243.9165893387898905 1328.0183560923001096 2232.0531409029299539
4131000 0.8234867517405469739 376.5820483752789869 1180.2423139146999347 -915.89823324649103142 2243.9165893387898905 1328.0183560923001096 2232.0531409029299539
 4131000    52521.615    376.58205    1180.2423    2243.9166   -915.89823    1328.0184    2232.0531   -1646.4035    2775.2727   -3051.8842    729.71997    628.89933    777.36663            0    2135.9859   -4180.7534    -64.18469      37.4495      37.4495      37.4495            0            0            0   0.82348675 
4132000 0.8234867517405469739 390.32020782037398021 824.75776426665800045 -1019.6102518766200546 2325.7773259799300831 1306.1670741033099148 1937.9099790552800187
4132000 0.8234867517405469739 390.32020782037398021 824.75776426665800045 -1019.6102518766200546 2325.7773259799300831 1306.1670741033099148 1937.9099790552800187
 4132000    52521.615    390.32021    824.75776    2325.7773   -1019.6103    1306.1671      1937.91   -1715.5512    2811.2069   -3084.2726    724.82011    576.60925    763.23295            0    2064.6623   -4179.9283    -64.18469      37.4495      37.4495      37.4495            0            0            0   0.82348675 
4133000 0.8234867517405469739 385.52047612756001627 1079.1338336965800409 -1017.1152893629099481 2297.1774561339098 1280.0621667709999656 2106.6504966639599843
4133000 0.8234867517405469739 385.52047612756001627 1079.1338336965800409 -1017.1152893629099481 2297.1774561339098 1280.0621667709999656 2106.6504966639599843
 4133000    52521.615    385.52048    1079.1338    2297.1775   -1017.1153    1280.0622    2106.6505   -1632.2973    2729.2417   -3083.0463     726.7629    584.02218     755.1459            0     2065.931   -4179.9906    -64.18469      37.4495      37.4495      37.4495            0            0            0   0.82348675 
4134000 0.8234867517405469739 384.87747929300400074 -120.6443178284390001 -854.25798114608994638 2293.3460699322099572 1439.0880887861198971 1346.6776925303799999
4134000 0.8234867517405469739 384.87747929300400074 -120.6443178284390001 -854.25798114608994638 2293.3460699322099572 1439.0880887861198971 1346.6776925303799999
 4134000    52521.615    384.87748   -120.64432    2293.3461   -854.25798    1439.0881    1346.6777   -1672.0794    2794.6016   -3057.9873    764.15801    639.22122    800.35009            0    2203.7293   -4180.5095    -64.18469      37.4495      37.4495      37.4495            0            0            0   0.82348675 
4135000 0.8234867517405469739 380.39059478615700982 -822.74605925431001197 -954.53595953460603596 2266.6103436202402008 1312.0743840856400766 681.87239262787500138
4135000 0.8234867517405469739 380.39059478615700982 -822.74605925431001197 -954.53595953460603596 2266.6103436202402008 1312.0743840856400766 681.87239262787500138
 4135000    52521.615    380.39059   -822.74606    2266.6103   -954.53596    1312.0744    681.87239   -1698.5636    2790.5523   -3089.0188    731.48337    637.88386    765.11558            0    2134.4828   -4181.0074    -64.18469      37.4495      37.4495      37.4495            0            0            0   0.82348675 
4136000 0.8234867517405469739 390.67941260707499396 -2576.7236187803400753 -923.07452805772197735 2327.9176977351098685 1404.8431696773900512 -568.85981890136395123
4136000 0.8234867517405469739 390.67941260707499396 -2576.7236187803400753 -923.07452805772197735 2327.9176977351098685 1404.8431696773900512 -568.85981890136395123
 4136000    52521.615    390.67941   -2576.7236    2327.9177   -923.07453    1404.8432   -568.85982   -1697.0736    2806.7196   -3069.2404    766.35128    607.11964    772.69497            0    2146.1659   -4178.8864    -64.18469      37.4495      37.4495      37.4495            0            0            0   0.82348675 
4137000 0.8234867517405469739 375.32116524108300837 12.120319381218299881 -953.91742705756894338 2236.4034415553401232 1282.4860144977699292 1291.769862563930019
4137000 0.8234867517405469739 375.32116524108300837 12.120319381218299881 -953.91742705756894338 2236.4034415553401232 1282.4860144977699292 1291.769862563930019
 4137000    52521.615    375.32117    12.120319    2236.4034   -953.91743     1282.486    1291.7699   -1674.7497    2797.5215   -3057.5192    715.07262    630.50169     758.0275            0    2103.6018    -4180.291    -64.18469      37.4495      37.4495      37.4495            0            0            0   0.82348675 
4138000 0.8234867517405469739 361.56790099211701772 374.22314157933800516 -918.98482835036804772 2154.4527008363797904 1235.4678724860100374 1522.1130243164900548
4138000 0.8234867517405469739 361.56790099211701772 374.22314157933800516 -918.98482835036804772 2154.4527008363797904 1235.4678724860100374 1522.1130243164900548
 4138000    52521.615     361.5679    374.22314    2154.4527   -918.98483    1235.4679     1522.113   -1703.5565    2847.6698   -3035.3729    737.45818    670.43745    708.49246            0    2116.3881   -4179.4862    -64.18469      37.4495      37.4495      37.4495            0            0            0   0.82348675 
4139000 0.8234867517405469739 376.5090873697830034 -575.76387732630701066 -903.36368366013198283 2243.4818410248099099 1340.1181573646799734 899.09806614801902924
4139000 0.8234867517405469739 376.5090873697830034 -575.76387732630701066 -903.36368366013198283 2243.4818410248099099 1340.1181573646799734 899.09806614801902924
 4139000    52521.615    376.50909   -575.76388    2243.4818   -903.36368    1340.1182    899.09807   -1688.9323    2838.8565   -3027.9241    739.82208    608.01288    776.72549            0    2124.5605   -4177.8483    -64.18469      37.4495      37.4495      37.4495            0            0            0   0.82348675 
4140000 0.8234867517405469739 376.55624451551898346 3036.99189160781998 -924.98684110353201504 2243.7628334461901431 1318.7759923426599471 3645.032455809629937
4140000 0.8234867517405469739 376.55624451551898346 3036.99189160781998 -924.98684110353201504 2243.7628334461901431 1318.7759923426599471 3645.032455809629937
 4140000    52521.615    376.55624    3036.9919    2243.7628   -924.98684     1318.776    3645.0325   -1639.1696    2851.6845   -2965.2497    693.70235    592.50261    754.05792            0    2040.2629   -4177.7647    -64.18469      37.4495      37.4495      37.4495            0            0            0   0.82348675 
4141000 0.8234867517405469739 378.90951284509498009 112.68532856032099687 -947.53318709450195456 2257.7851105745899076 1310.2519234800899994 1396.5659418433699557
4141000 0.8234867517405469739 378.90951284509498009 112.68532856032099687 -947.53318709450195456 2257.7851105745899076 1310.2519234800899994 1396.5659418433699557
 4141000    52521.615    378.90951    112.68533    2257.7851   -947.53319    1310.2519    1396.5659    -1690.977    2818.3474   -3052.4754    730.24165     592.6184    782.08212            0    2104.9422   -4179.8457    -64.18469      37.4495      37.4495      37.4495            0            0            0   0.82348675 
4142000 0.8234867517405469739 377.33392546044501614 19.31936378746960159 -1009.4405383287099767 2248.3967536796699278 1238.9562153509600648 1253.7543433949799692
4142000 0.8234867517405469739 377.33392546044501614 19.31936378746960159 -1009.4405383287099767 2248.3967536796699278 1238.9562153509600648 1253.7543433949799692
 4142000    52521.615    377.33393    19.319364    2248.3968   -1009.4405    1238.9562    1253.7543   -1706.2915    2765.3616   -3120.3407    752.53946    600.82486    757.53581            0    2110.9001   -4179.4108    -64.18469      37.4495      37.4495      37.4495            0            0            0   0.82348675 
4143000 0.8234867517405469739 380.35790152091698246 -297.44730298327601759 -879.10675726361205307 2266.4155362454698661 1387.3087789818600868 1159.4719141493499137
4143000 0.8234867517405469739 380.35790152091698246 -297.44730298327601759 -879.10675726361205307 2266.4155362454698661 1387.3087789818600868 1159.4719141493499137
 4143000    52521.615     380.3579    -297.4473    2266.4155   -879.10676    1387.3088    1159.4719   -1726.6743    2808.1143   -3096.5912    754.53481    660.44567    802.50392            0    2217.4844   -4178.0311    -64.18469      37.4495      37.4495      37.4495            0            0            0   0.82348675 
4144000 0.8234867517405469739 386.92311901686002784 912.20039042323901413 -1005.4954484875499929 2305.5352991638601452 1300.0398506763099249 1998.7615232836599262
4144000 0.8234867517405469739 386.92311901686002784 912.20039042323901413 -1005.4954484875499929 2305.5352991638601452 1300.0398506763099249 1998.7615232836599262
 4144000    52521.615    386.92312    912.20039    2305.5353   -1005.4954    1300.0399    1998.7615   -1698.8016    2788.0467   -3089.0959    727.56186    611.31223    744.72632            0    2083.6004   -4178.3409    -64.18469      37.4495      37.4495      37.4495            0            0            0   0.82348675 
4145000 0.8234867517405469739 380.02024519025201243 1033.1723895187599283 -1040.2329978537800343 2264.403563967070113 1224.1705661132900786 2015.5536302680100107
4145000 0.8234867517405469739 380.02024519025201243 1033.1723895187599283 -1040.2329978537800343 2264.403563967070113 1224.1705661132900786 2015.5536302680100107
 4145000    52521.615    380.02025    1033.1724    2264.4036    -1040.233    1224.1706    2015.5536   -1713.3395    2780.5616   -3112.9877     714.2617    601.61646    756.87651            0    2072.7547   -4180.2098    -64.18469      37.4495      37.4495      37.4495            0            0            0   0.82348675 
4146000 0.8234867517405469739 385.33604616705497392 945.74878898409599515 -950.52033844074799163 2296.0785045249999712 1345.5581660842499332 2069.9770357130400953
4146000 0.8234867517405469739 385.33604616705497392 945.74878898409599515 -950.52033844074799163 2296.0785045249999712 1345.5581660842499332 2069.9770357130400953
 4146000    52521.615    385.33605    945.74879    2296.0785   -950.52034    1345.5582     2069.977   -1729.3618    2838.4605    -3069.577    778.46372    615.32027    725.27269            0    2119.0567   -4178.6756    -64.18469      37.4495      37.4495      37.4495            0            0            0   0.82348675 
4147000 0.8234867517405469739 380.41374276133700505 260.78626508980198651 -969.7762440056790183 2266.7482740546302011 1296.972030048950046 1496.7274974326298889
4147000 0.8234867517405469739 380.41374276133700505 260.78626508980198651 -969.7762440056790183 2266.7482740546302011 1296.972030048950046 1496.7274974326298889
 4147000    52521.615    380.41374    260.78627    2266.7483   -969.77624     1296.972    1496.7275   -1725.3481    2885.9304   -3018.3087    701.79447    615.90976    730.82826            0    2048.5325   -4178.8911    -64.18469      37.4495      37.4495      37.4495            0            0            0   0.82348675 
4148000 0.8234867517405469739 392.22944990923599562 396.57058579262900366 -880.48327163501198811 2337.1538109046500722 1456.6705392696399031 1760.4332496575800633
4148000 0.8234867517405469739 392.22944990923599562 396.57058579262900366 -880.48327163501198811 2337.1538109046500722 1456.6705392696399031 1760.4332496575800633
 4148000    52521.615    392.22945    396.57059    2337.1538   -880.48327    1456.6705    1760.4332   -1673.7007    2808.9915   -3042.9188    724.99347     651.9771    785.46498            0    2162.4356   -4178.2096    -64.18469      37.4495      37.4495      37.4495            0            0            0   0.82348675 
4149000 0.8234867517405469739 390.45928961434702842 56.606433696958703194 -983.34741708286503581 2326.6060642220199952 1343.2586471391500709 1386.6176968044599107
4149000 0.8234867517405469739 390.45928961434702842 56.606433696958703194 -983.34741708286503581 2326.6060642220199952 1343.2586471391500709 1386.6176968044599107
 4149000    52521.615    390.45929    56.606434    2326.6061   -983.34742    1343.2586    1386.6177   -1645.0218    2776.4359   -3047.6945    725.29743    619.47421    719.57546            0    2064.3471   -4179.1085    -64.18469      37.4495      37.4495      37.4495            0            0            0   0.82348675 
4150000 0.8234867517405469739 393.13603959508202479 3534.2668994191099046 -852.46217178732001685 2342.5558518265997918 1490.0936800392798887 4197.2498107849796725
4150000 0.8234867517405469739 393.13603959508202479 3534.2668994191099046 -852.46217178732001685 2342.5558518265997918 1490.0936800392798887 4197.2498107849796725
 4150000    52521.615    393.13604    3534.2669    2342.5559   -852.46217    1490.0937    4197.2498   -1631.9245    2791.1506   -3020.2686    748.45328    656.67466    762.67854            0    2167.8065   -4179.4947    -64.18469      37.4495      37.4495      37.4495            0            0            0   0.82348675 
 4150519    52521.615     387.4957    2460.4427    2308.9471   -944.47276    1364.4743    3249.1092   -1673.7018    2820.8894   -3032.5081    728.01397    644.49711    715.52429            0    2088.0354   -4179.6958    -64.18469      37.4495      37.4495      37.4495            0            0            0   0.82348675 
Loop time of 5089.95 on 48 procs for 3000000 steps with 2000 atoms

Performance: 50.924 ns/day, 0.471 hours/ns, 589.397 timesteps/s
44.5% CPU use with 48 MPI tasks x 1 OpenMP threads

MPI task timing breakdown:
Section |  min time  |  avg time  |  max time  |%varavg| %total
---------------------------------------------------------------
Pair    | 743.63     | 778.39     | 843.24     |  85.2 | 15.29
Bond    | 31.741     | 33.082     | 36.852     |  15.5 |  0.65
Kspace  | 916.72     | 1104.2     | 1244.2     | 265.6 | 21.69
Neigh   | 224.17     | 256.82     | 285.39     | 125.5 |  5.05
Comm    | 1888.1     | 2186.2     | 2575.6     | 345.1 | 42.95
Output  | 11.92      | 11.945     | 11.953     |   0.2 |  0.23
Modify  | 194.16     | 425.4      | 620.85     | 506.1 |  8.36
Other   |            | 294        |            |       |  5.78

Nlocal:    41.6667 ave 54 max 34 min
Histogram: 5 7 10 4 5 4 5 4 0 4
Nghost:    2459.73 ave 2508 max 2421 min
Histogram: 1 4 9 6 10 8 4 4 0 2
Neighs:    11191 ave 15297 max 8702 min
Histogram: 5 7 8 7 8 5 4 2 0 2

Total # of neighbors = 537166
Ave neighs/atom = 268.583
Ave special neighs/atom = 4.8
Neighbor list builds = 307329
Dangerous builds = 0

write_data      restart.${NAME}.final.data
write_data      restart.octanol_ua_383.final.data
Ewald initialization ...
  using 12-bit tables for long-range coulomb (src/kspace.cpp:332)
  G vector (1/distance) = 0.149129
  estimated absolute RMS force accuracy = 0.0367822
  estimated relative force accuracy = 0.000110768
  KSpace vectors: actual max1d max3d = 128 4 364
                  kxmax kymax kzmax  = 4 4 4
Total wall time: 1:57:01
