
variable        infile index NoctanolN.data   # The name of the (edited) data file

#>>>>>> Simulation settings <<<<<<<

units		 real		#angstroms = length -
atom_style	 full		#How the atoms are defined in the input data file
boundary        p p p           #periodic box in x, y and z
pair_style	 lj/cut/coul/long 14.0    #'lj/cut/coul/long 12.0' for your ethanol simulation
pair_modify     tail yes            #Tail corrections
pair_modify     mix arithmetic      #Lorentz-Berthelot pair interactions between dissimilar atom

# The settings below are additional settings you must add for your ethanol simulation as already detailed in your example NPT LAMMPS script in the tutorial
# For your ethanol homework, change/edit the pair_style line as advised above and uncomment the extra settings below and you should be good to go for this section.

special_bonds   lj/coul 0.0 0.0 0.5
kspace_style    ewald 0.0001
bond_style      harmonic
angle_style     harmonic
dihedral_style  opls


# >>> Using the variable command in LAMMPS to define inputs/settings for the simulation <<<<<<

variable   simulationTemp  index 310     #Simulation temperature
variable   simulationPress equal 0.987	#Simulation pressure

# Output files frequencies
variable        dumpfreq   index 1000          #Output frequency of dump information to dump
variable        thermofreq index 1000          #Output frequency of property information to log
variable        printfreq  index 1000          #Output frequency of information to be printed
variable        restartfreq index 1000000      #Output frequency of restart files


# Simulation run times (equilibration and production)
variable        NVT_equib  index 100000       # Equilibration run length (in timesteps)
variable        NVT_prod   index 30000       # Simulation run length  (in timesteps)


# Defining properties to output
# The first expression after the 'variable' command is a user defined name for the variable, it can be anything
# The expression after the 'equal' keyword are LAMMPS special/reserved terms for those property

variable    step        equal step
variable    density     equal density
variable    temp        equal temp
variable    press       equal press
variable    ke          equal ke
variable    pe          equal pe
variable    etotal      equal etotal
variable    enthalpy    equal enthalpy


# >>>>>>>>>>> Reading data, Neighbor list settings, energy minimization, assigning initial velocities & specifying thermodynamic property output style to log files <<<<<<<<<

read_data	${infile}
read_data	NoctanolN.data
  orthogonal box = (0 0 0) to (40 40 40)
  3 by 4 by 4 MPI processor grid
  reading atoms ...
  6000 atoms
  scanning bonds ...
  1 = max bonds/atom
  scanning angles ...
  6 = max angles/atom
  scanning dihedrals ...
  9 = max dihedrals/atom
  reading bonds ...
  5800 bonds
  reading angles ...
  10800 angles
  reading dihedrals ...
  15000 dihedrals
  4 = max # of 1-2 neighbors
  6 = max # of 1-3 neighbors
  12 = max # of 1-4 neighbors
  16 = max # of special neighbors
  special bonds CPU = 0.0199076 secs
  read_data CPU = 0.177771 secs
neighbor        1.0 bin
neigh_modify    delay 0 every 1 check yes page 1000000 one 20000
timestep        1.0

minimize        1e-4 1e-6 10000 100000        #Energy minimize before creating velocities
Ewald initialization ...
  using 12-bit tables for long-range coulomb (src/kspace.cpp:332)
  G vector (1/distance) = 0.156941
  estimated absolute RMS force accuracy = 0.0340254
  estimated relative force accuracy = 0.000102467
  KSpace vectors: actual max1d max3d = 257 5 665
                  kxmax kymax kzmax  = 5 5 5
Neighbor list info ...
  update every 1 steps, delay 0 steps, check yes
  max neighbors/atom: 20000, page size: 1000000
  master list distance cutoff = 15
  ghost atom cutoff = 15
  binsize = 7.5, bins = 6 6 6
  1 neighbor lists, perpetual/occasional/extra = 1 0 0
  (1) pair lj/cut/coul/long, perpetual
      attributes: half, newton on
      pair build: half/bin/newton
      stencil: half/bin/3d/newton
      bin: standard
Per MPI rank memory allocation (min/avg/max) = 24.88 | 24.93 | 24.97 Mbytes
Step Temp E_pair E_mol TotEng Press 
       0            0 7.4901084e+10    1113.1887 7.4901085e+10 3.2099095e+11 
     601            0   -2350.5545    361.07585   -1989.4786   -1633.5326 
Loop time of 18.9925 on 48 procs for 601 steps with 6000 atoms

42.2% CPU use with 48 MPI tasks x 1 OpenMP threads

Minimization stats:
  Stopping criterion = energy tolerance
  Energy initial, next-to-last, final = 
         74901084792.6     -1989.32269202     -1989.47864559
  Force two-norm initial, final = 3.20335e+12 24.9276
  Force max component initial, final = 1.63744e+12 4.73055
  Final line search alpha, max atom move = 0.00690042 0.0326428
  Iterations, force evaluations = 601 1155

MPI task timing breakdown:
Section |  min time  |  avg time  |  max time  |%varavg| %total
---------------------------------------------------------------
Pair    | 1.7807     | 3.385      | 5.2592     |  43.9 | 17.82
Bond    | 0.071194   | 0.11377    | 0.15286    |   5.4 |  0.60
Kspace  | 2.808      | 4.5574     | 6.3702     |  39.7 | 24.00
Neigh   | 0.45687    | 0.53388    | 0.61442    |   6.6 |  2.81
Comm    | 2.8803     | 3.913      | 4.8829     |  28.3 | 20.60
Output  | 0          | 0          | 0          |   0.0 |  0.00
Modify  | 0          | 0          | 0          |   0.0 |  0.00
Other   |            | 6.489      |            |       | 34.17

Nlocal:    125 ave 167 max 72 min
Histogram: 1 1 3 6 7 10 9 4 5 2
Nghost:    6299 ave 6454 max 6100 min
Histogram: 9 7 0 0 0 0 3 14 11 4
Neighs:    83830.8 ave 126551 max 42499 min
Histogram: 2 4 3 6 10 10 5 3 4 1

Total # of neighbors = 4023878
Ave neighs/atom = 670.646
Ave special neighs/atom = 10.5333
Neighbor list builds = 47
Dangerous builds = 0
#velocity	all create ${simulationTemp} 886874 mom yes rot yes dist gaussian

velocity        all create  ${simulationTemp} 317879265 units box
velocity        all create  310 317879265 units box
velocity        all zero linear units box

# The 'velocity' command line above assigns initial velocities to the atoms in our data file, see the LAMMPS 'velocity' command
# The number '886874' is the seed number which helps LAMMPS to consistently assign the same randomized velocities for the same simulation with the same seed number
# Changing that seed number for your simulation of a given system is one easy way to run an 'independent' simulation of the same system as taught in class
# You will need to do this for your homework

thermo_style    custom step vol temp press ke pe etotal enthalpy evdwl ecoul epair ebond eangle edihed eimp emol elong etail lx ly lz xy xz yz density
thermo          ${thermofreq}
thermo          1000

fix npt_density all npt temp ${simulationTemp} ${simulationTemp} 100 iso ${simulationPress} ${simulationPress} 1000
fix npt_density all npt temp 310 ${simulationTemp} 100 iso ${simulationPress} ${simulationPress} 1000
fix npt_density all npt temp 310 310 100 iso ${simulationPress} ${simulationPress} 1000
fix npt_density all npt temp 310 310 100 iso 0.987 ${simulationPress} 1000
fix npt_density all npt temp 310 310 100 iso 0.987 0.987 1000

run 50000
Ewald initialization ...
  using 12-bit tables for long-range coulomb (src/kspace.cpp:332)
  G vector (1/distance) = 0.156941
  estimated absolute RMS force accuracy = 0.0340254
  estimated relative force accuracy = 0.000102467
  KSpace vectors: actual max1d max3d = 257 5 665
                  kxmax kymax kzmax  = 5 5 5
Per MPI rank memory allocation (min/avg/max) = 23.75 | 23.81 | 24.01 Mbytes
Step Volume Temp Press KinEng PotEng TotEng Enthalpy E_vdwl E_coul E_pair E_bond E_angle E_dihed E_impro E_mol E_long E_tail Lx Ly Lz Xy Xz Yz Density 
     601        64000          310    2325.8525    5543.3826   -1989.4786     3553.904     5724.795   -1945.6753    13039.232   -2350.5545    66.509307    358.77231    -64.20577            0    361.07585   -13444.111   -49.047561           40           40           40            0            0            0   0.74858454 
    1000    63634.561    229.56203    875.49065    4105.0005    2082.8365     6187.837    7000.3316   -1647.9874    13289.889   -1804.8786    1380.8539    2262.2374    244.62388            0    3887.7151    -13446.78    -49.32923    39.923722    39.923722    39.923722            0            0            0   0.75288349 
    2000    64012.568    307.55084    90.699746    5499.5871    3737.3636    9236.9507    9321.6241   -1477.0771     13400.51   -1526.1718    1900.4824    2990.1564     372.8966            0    5263.5353   -13449.605   -49.037931    40.002618    40.002618    40.002618            0            0            0   0.74843757 
    3000    61285.774    305.60234   -380.13038    5464.7443    3387.0085    8851.7528     8511.996   -1598.2779    13295.073   -1752.0275    1890.8339    2914.7955     333.4067            0     5139.036   -13448.822   -51.219781    39.426349    39.426349    39.426349            0            0            0   0.78173788 
    4000    60244.651    315.98434    676.05224    5650.3939    3396.1507    9046.5446    9640.5284   -1638.8544    13334.516   -1752.4132    1905.5948    2923.5467    319.42242            0    5148.5639   -13448.075    -52.10494    39.201814    39.201814    39.201814            0            0            0   0.79524754 
    5000    59040.666    306.91672   -1076.5761    5488.2478    3122.2019    8610.4497    7683.4665   -1698.5668    13302.165   -1845.7504    1851.1395    2860.5042    256.30863            0    4967.9523   -13449.349   -53.167488    38.938906    38.938906    38.938906            0            0            0   0.81146461 
    6000     58882.02    311.46438   -952.01471    5569.5686    3094.5927    8664.1613    7846.6341   -1664.2732    13237.774   -1877.1153    1883.4795    2816.1953     272.0332            0     4971.708   -13450.616   -53.310738    38.903998    38.903998    38.903998            0            0            0   0.81365094 
    7000     58722.02    310.20685   -91.243678    5547.0815     3154.383    8701.4646    8623.3234   -1684.7546    13256.303   -1876.4146    1918.4911    2868.0908    244.21574            0    5030.7976   -13447.963   -53.455994    38.868728    38.868728    38.868728            0            0            0    0.8158679 
    8000    58312.419    308.69059    582.39195     5519.968    3060.1305    8580.0985    9075.3802   -1672.0245    13205.283   -1917.1883    1892.5557    2890.5695     194.1936            0    4977.3188   -13450.447   -53.831481    38.778144    38.778144    38.778144            0            0            0   0.82159874 
    9000    57651.895    309.76794    945.27602     5539.233    2997.9355    8537.1684    9331.9506   -1767.7556    13311.742   -1906.6729    1806.8602    2901.8768    195.87139            0    4904.6083   -13450.659   -54.448235     38.63117     38.63117     38.63117            0            0            0    0.8310119 
   10000     58120.81    312.79469    193.33026    5593.3569    3038.6777    8632.0346    8795.9075   -1754.6471    13325.467   -1880.4602    1869.3994    2883.7375    166.00104            0    4919.1379   -13451.281    -54.00895    38.735624    38.735624    38.735624            0            0            0   0.82430734 
   11000    57845.379    311.05026    343.59873    5562.1632    3061.6932    8623.8564    8913.7216   -1724.0466    13251.613   -1923.4833     1897.639    2931.0959    156.44166            0    4985.1765    -13451.05   -54.266113    38.674338    38.674338    38.674338            0            0            0   0.82823228 
   12000    58341.604    311.80473   -148.56966    5575.6546    2917.7399    8493.3945    8366.9837   -1712.2579    13253.398   -1909.1614    1896.2006     2831.245    99.455703            0    4826.9013   -13450.301   -53.804553    38.784612    38.784612    38.784612            0            0            0   0.82118775 
   13000    57070.578    310.71431   -1262.6993    5556.1559    2846.7596    8402.9155    7351.9509   -1774.8994    13226.587   -1998.4986    1923.5861    2827.5621    94.109919            0    4845.2581   -13450.186   -55.002841    38.500889    38.500889    38.500889            0            0            0   0.83947653 
   14000    57479.692    312.37382    749.86025     5585.831    2910.3698    8496.2008    9124.7954   -1770.8367    13277.457   -1944.7812    1862.0781    2891.8498    101.22299            0     4855.151   -13451.401   -54.611356    38.592669    38.592669    38.592669            0            0            0   0.83350153 
   15000    57858.207    309.90262    622.17518    5541.6414    2922.4591    8464.1004    8989.0935   -1759.8269    13281.327    -1926.198    1850.1118    2911.4158    87.129454            0     4848.657   -13447.698   -54.254082    38.677197    38.677197    38.677197            0            0            0   0.82804865 
   16000    56718.055    307.64155    921.73291    5501.2091    2719.2941    8220.5032    8982.9373   -1756.1605    13150.677   -2058.2701    1838.3109    2817.7398    121.51342            0    4777.5641   -13452.787   -55.344703    38.421452    38.421452    38.421452            0            0            0   0.84469418 
   17000    57445.848    312.25712   -604.04422    5583.7443    2794.6561    8378.4004    7872.3389   -1796.4601    13234.548   -2010.9643    1915.2645    2831.7411    58.614784            0    4805.6204   -13449.052    -54.64353    38.585093    38.585093    38.585093            0            0            0   0.83399257 
   18000    57442.646    309.27037   -693.31572    5530.3355    2883.9924     8414.328    7833.5082    -1760.177    13237.992   -1972.0495    1913.2367    2889.8787     52.92642            0    4856.0419   -13449.864   -54.646576    38.584376    38.584376    38.584376            0            0            0   0.83403906 
   19000    57773.598    308.84375    -796.0978    5522.7067    2781.7696    8304.4763    7633.7093   -1748.9958    13244.201   -1956.0385    1868.5643    2826.9003    42.343456            0     4737.808   -13451.244   -54.333537    38.658334    38.658334    38.658334            0            0            0   0.82926134 
   20000    57710.592    309.00239    535.29884    5525.5434     2745.168    8270.7114    8721.2456   -1769.8428     13279.92   -1937.4896    1814.5305    2864.3197    3.8074791            0    4682.6576   -13447.567   -54.392856    38.644276    38.644276    38.644276            0            0            0   0.83016668 
   21000    57042.473    313.16685    1181.0233    5600.0118    2706.1075    8306.1193    9288.6196   -1796.6884    13202.638   -2044.7017    1856.8875    2868.6191    25.302643            0    4750.8092   -13450.651   -55.029941    38.494568    38.494568    38.494568            0            0            0   0.83989014 
   22000    57489.184    303.37675   -678.16317    5424.9465    2811.4872    8236.4337    7667.8476   -1797.7147    13222.286   -2025.0072    1887.6347    2915.3864    33.473367            0    4836.4944   -13449.578   -54.602339    38.594793    38.594793    38.594793            0            0            0    0.8333639 
   23000    57185.027    309.78491   -561.59851    5539.5364    2752.3738    8291.9102    7823.5455   -1805.6277    13219.308   -2037.1732    1842.9167    2933.3592     13.27118            0     4789.547   -13450.854   -54.892759    38.526608    38.526608    38.526608            0            0            0   0.83779642 
   24000    56463.132    316.41202    917.48628    5658.0416    2712.2867    8370.3283    9125.8387   -1805.6726    13197.154   -2058.4329    1892.4745    2918.4051   -40.159974            0    4770.7197   -13449.914   -55.594576    38.363803    38.363803    38.363803            0            0            0   0.84850785 
   25000    56820.915    308.65106    818.49561    5519.2611    2620.7819     8140.043    8818.3097    -1775.752    13180.113   -2047.6748    1836.7766    2882.0126    -50.33242            0    4668.4568   -13452.036   -55.244516    38.444664    38.444664    38.444664            0            0            0   0.84316507 
   26000    56955.344    315.04936    833.53993    5633.6748    2652.7395    8286.4142    8978.7819   -1811.3774    13193.304   -2067.4932    1860.4726    2904.9041   -45.144044            0    4720.2327    -13449.42   -55.114124    38.474959    38.474959    38.474959            0            0            0   0.84117498 
   27000    56455.692    317.93335    185.74784    5685.2459    2626.6811     8311.927    8464.8622   -1841.7359    13204.093   -2085.8298     1893.523     2862.325   -43.337126            0    4712.5109   -13448.187   -55.601903    38.362118    38.362118    38.362118            0            0            0   0.84861967 
   28000    56530.169    307.90216   -871.75615    5505.8693    2579.0764    8084.9457    7366.2398   -1859.0394    13232.223    -2072.009    1851.8019    2872.9142   -73.630629            0    4651.0854   -13445.193   -55.528649     38.37898     38.37898     38.37898            0            0            0   0.84750163 
   29000    56478.977    310.41031   -398.08269    5550.7197    2719.6756    8270.3954    7942.4994   -1855.5488    13223.722   -2084.1907    1922.2457    2932.3433   -50.722727            0    4803.8663   -13452.364    -55.57898    38.367391    38.367391    38.367391            0            0            0   0.84826981 
   30000    56359.939    313.18683    297.12917    5600.3692    2612.0274    8212.3966    8456.6225   -1855.8596    13174.874    -2132.028    1910.6491    2870.3971   -36.990788            0    4744.0554   -13451.043   -55.696368    38.340418    38.340418    38.340418            0            0            0   0.85006144 
   31000    56751.629    306.19487   -626.37168    5475.3397    2622.4372    8097.7769    7579.3514   -1853.1856    13266.018    -2037.399    1922.5073     2835.789     -98.4601            0    4659.8362   -13450.231   -55.311961    38.429032    38.429032    38.429032            0            0            0   0.84419445 
   32000    56405.487    312.86215    1543.3635    5594.5632    2525.0564    8119.6195    9389.2153     -1817.76    13202.297   -2064.6727    1893.7714    2779.0662   -83.108566            0     4589.729    -13449.21   -55.651393    38.350743    38.350743    38.350743            0            0            0     0.849375 
   33000    56860.658    312.25632    227.48825    5583.7299    2578.8086    8162.5384    8351.1841   -1768.3049     13135.41   -2084.4503    1922.5979    2814.4902   -73.829275            0    4663.2588   -13451.556   -55.205902    38.453626    38.453626    38.453626            0            0            0   0.84257574 
   34000    56302.073     309.5465    608.69565    5535.2732    2523.1065    8058.3796    8558.1845   -1823.9458    13143.684   -2132.7067    1849.3695    2874.5522    -68.10843            0    4655.8132   -13452.445   -55.753612    38.327291    38.327291    38.327291            0            0            0   0.85093511 
   35000    56352.558    308.27555   -1292.6044    5512.5463    2508.6684    8021.2147    6958.8952   -1884.3209    13184.461   -2151.2225     1942.069    2848.3792   -130.55746            0    4659.8908   -13451.362   -55.703664    38.338744    38.338744    38.338744            0            0            0   0.85017278 
   36000    56429.065    311.79831   -353.30358    5575.5398    2526.3097    8101.8496    7811.0948    -1842.703    13183.598   -2109.6016    1954.6826    2826.4858   -145.25694            0    4635.9114   -13450.497   -55.628139    38.356086    38.356086    38.356086            0            0            0    0.8490201 
   37000    55620.603     308.0745    1205.5787    5508.9511    2407.1403    7916.0914      8894.02   -1864.8017    13138.863   -2176.6576    1889.4781    2841.1415   -146.82169            0    4583.7979   -13450.719   -56.436711    38.172028    38.172028    38.172028            0            0            0   0.86136086 
   38000    55855.471    306.19706     -274.373     5475.379    2450.3183    7925.6973    7702.1945   -1863.2298    13165.407   -2146.4055    1908.0036    2780.1578   -91.437524            0    4596.7239   -13448.583     -56.1994    38.225682    38.225682    38.225682            0            0            0   0.85773891 
   39000     56311.55    313.01768    982.19433    5597.3445    2521.6861    8119.0306    8925.6539   -1826.5582    13126.232   -2149.0385    1896.7318    2899.3905   -125.39771            0    4670.7246   -13448.713   -55.744229    38.329442    38.329442    38.329442            0            0            0   0.85079191 
   40000    56505.894    307.92424    494.41953    5506.2642    2351.1437    7857.4079    8264.8494   -1866.3805     13206.34   -2108.4675    1842.5476    2795.3825   -178.31899            0    4459.6112   -13448.427   -55.552504    38.373486    38.373486    38.373486            0            0            0   0.84786573 
   41000    55674.802    307.26078   -173.88317    5494.4002    2518.5197    8012.9199    7871.7337   -1895.9387     13222.03   -2123.7935    1907.7362    2897.0009   -162.42393            0    4642.3132   -13449.884   -56.381771    38.184422    38.184422    38.184422            0            0            0   0.86052234 
   42000    56386.554    314.01645    740.76187    5615.2043    2488.4518    8103.6561    8712.8143   -1866.8316    13200.343   -2116.4889    1869.8601    2915.8122   -180.73159            0    4604.9407       -13450   -55.670079    38.346452    38.346452    38.346452            0            0            0    0.8496602 
   43000    55898.683    308.42838    553.39767    5515.2791    2467.6789     7982.958    8434.1016   -1914.2326    13201.045   -2164.1528    1920.9577    2880.3443   -169.47021            0    4631.8317   -13450.965   -56.155955    38.235537    38.235537    38.235537            0            0            0   0.85707584 
   44000     56086.05    308.30719    405.91898     5513.112    2469.4843    7982.5963    8314.6208   -1872.7114    13225.351   -2096.8596    1904.7641    2869.3441   -207.76428            0    4566.3439     -13449.5   -55.968354     38.27821     38.27821     38.27821            0            0            0    0.8542126 
   45000    55955.187    308.75886    129.55579    5521.1887    2511.9983     8033.187    8138.9109    -1849.475    13235.823   -2063.4422     1925.625     2844.634   -194.81841            0    4575.4405    -13449.79   -56.099248    38.248416    38.248416    38.248416            0            0            0   0.85621036 
   46000    56106.395    307.44762    739.41222    5497.7413    2427.7513    7925.4926    8530.5197   -1828.3842    13185.093   -2093.9681    1870.7932    2847.8107    -196.8845            0    4521.7194   -13450.677   -55.948059    38.282838    38.282838    38.282838            0            0            0   0.85390285 
   47000     56175.96    308.28168   -422.79364    5512.6559    2442.8929    7955.5488    7609.1672   -1898.2015    13281.332    -2066.875    1899.2136    2820.4514   -209.89709            0    4509.7678   -13450.006   -55.878776    38.298653    38.298653    38.298653            0            0            0   0.85284543 
   48000    55934.035    311.92477   -131.72824    5577.8011    2501.6015    8079.4026    7971.9465   -1896.4781     13232.36   -2113.3135     1979.604    2838.1584   -202.84736            0     4614.915   -13449.195   -56.120463    38.243595    38.243595    38.243595            0            0            0   0.85653415 
   49000    56248.953    314.44358   -977.71504    5622.8422    2519.8374    8142.6797    7340.6275    -1898.566    13233.789   -2117.5435    1915.9949    2911.1495   -189.76357            0    4637.3809   -13452.766   -55.806264    38.315234    38.315234    38.315234            0            0            0   0.85173871 
   50000    56888.521    307.81014   -1430.7286    5504.2237    2479.3589    7983.5827    6796.5633   -1867.8057    13241.191   -2076.3346    1916.4182    2830.5298   -191.25453            0    4555.6935    -13449.72   -55.178863    38.459906    38.459906    38.459906            0            0            0   0.84216306 
   50601    56002.882    311.24415   -1117.8134    5565.6305    2360.8646    7926.4951     7013.527   -1927.2589    13285.962    -2091.214    1868.0238    2828.5066   -244.45192            0    4452.0785   -13449.917   -56.051471     38.25928     38.25928     38.25928            0            0            0   0.85548116 
Loop time of 290.123 on 48 procs for 50000 steps with 6000 atoms

Performance: 14.890 ns/day, 1.612 hours/ns, 172.340 timesteps/s
69.2% CPU use with 48 MPI tasks x 1 OpenMP threads

MPI task timing breakdown:
Section |  min time  |  avg time  |  max time  |%varavg| %total
---------------------------------------------------------------
Pair    | 110.66     | 126.28     | 140.37     |  64.5 | 43.53
Bond    | 4.7063     | 5.2273     | 5.878      |  11.6 |  1.80
Kspace  | 36.484     | 51.698     | 67.056     | 101.3 | 17.82
Neigh   | 21.553     | 22.466     | 23.098     |  11.3 |  7.74
Comm    | 47.695     | 54.516     | 62.591     |  43.4 | 18.79
Output  | 0.054672   | 0.055336   | 0.065144   |   0.6 |  0.02
Modify  | 18.546     | 23.477     | 27.374     |  43.8 |  8.09
Other   |            | 6.406      |            |       |  2.21

Nlocal:    125 ave 136 max 102 min
Histogram: 1 0 1 1 4 9 9 11 7 5
Nghost:    7045.58 ave 7118 max 6973 min
Histogram: 2 2 7 3 8 10 8 5 1 2
Neighs:    94655.7 ave 108842 max 71087 min
Histogram: 1 0 0 1 6 12 17 7 2 2

Total # of neighbors = 4543474
Ave neighs/atom = 757.246
Ave special neighs/atom = 10.5333
Neighbor list builds = 5708
Dangerous builds = 0

unfix npt_density

fix reshape_box all deform 1 x final 0.0 37.4456 y final 0.0 37.4456 z final 0.0 37.4456 units box

run 100000
Ewald initialization ...
  using 12-bit tables for long-range coulomb (src/kspace.cpp:332)
  G vector (1/distance) = 0.158022
  estimated absolute RMS force accuracy = 0.0335499
  estimated relative force accuracy = 0.000101034
  KSpace vectors: actual max1d max3d = 257 5 665
                  kxmax kymax kzmax  = 5 5 5
Per MPI rank memory allocation (min/avg/max) = 23.78 | 23.82 | 24.02 Mbytes
Step Volume Temp Press KinEng PotEng TotEng Enthalpy E_vdwl E_coul E_pair E_bond E_angle E_dihed E_impro E_mol E_long E_tail Lx Ly Lz Xy Xz Yz Density 
   50601    56002.882    311.24415   -1117.9246    5565.6305     2360.824    7926.4545    7013.3956   -1927.2589    13378.329   -2091.2545    1868.0238    2828.5066   -244.45192            0    4452.0785   -13542.325   -56.051471     38.25928     38.25928     38.25928            0            0            0   0.85548116 
   51000    55988.627    311.24415   -905.15815    5565.6305    2359.7036    7925.3341    7186.2393   -1926.0611     13378.35   -2090.0386    1865.6875    2828.5066   -244.45192            0    4449.7422   -13542.328   -56.065742    38.256033    38.256033    38.256033            0            0            0   0.85569898 
   52000    55952.909    311.24415   -370.66269    5565.6305    2356.9762    7922.6067    7620.1401   -1923.0393    13378.298   -2087.0773    1859.9988    2828.5066   -244.45192            0    4444.0535   -13542.335   -56.101532    38.247897    38.247897    38.247897            0            0            0   0.85624522 
   53000    55917.207    311.24415    165.40528    5565.6305    2354.7323    7920.3627    8055.2499   -1920.0003    13378.451   -2083.8922    1854.5698    2828.5066   -244.45192            0    4438.6245   -13542.343   -56.137352     38.23976     38.23976     38.23976            0            0            0   0.85679192 
   54000    55881.519    311.24415    700.48996    5565.6305    2352.4357    7918.0661    8488.9477   -1916.9414    13378.273   -2081.0195    1849.4004    2828.5066   -244.45192            0    4433.4551   -13542.351   -56.173203    38.231623    38.231623    38.231623            0            0            0   0.85733908 
   55000    55845.847    311.24415     1237.327    5565.6305    2350.6606     7916.291    8924.0375   -1913.8654    13378.339   -2077.8849    1844.4907    2828.5066   -244.45192            0    4428.5454   -13542.358   -56.209084    38.223486    38.223486    38.223486            0            0            0   0.85788672 
   56000     55810.19    311.24415    1774.6314    5565.6305    2349.1381    7914.7686    9359.2021   -1910.7705    13378.379   -2074.7572    1839.8407    2828.5066   -244.45192            0    4423.8954   -13542.366   -56.244996    38.215349    38.215349    38.215349            0            0            0   0.85843482 
   57000    55774.549    311.24415    2313.3426    5565.6305    2348.0641    7913.6945    9795.4011    -1907.656    13378.589   -2071.4409    1835.4503    2828.5066   -244.45192            0     4419.505   -13542.373   -56.280938    38.207213    38.207213    38.207213            0            0            0   0.85898338 
   58000    55738.922    311.24415    2850.4168    5565.6305    2346.8004    7912.4308     10229.52   -1904.5213    13378.329   -2068.5739    1831.3195    2828.5066   -244.45192            0    4415.3742   -13542.381   -56.316911    38.199076    38.199076    38.199076            0            0            0   0.85953242 
   59000    55703.311    311.24415    3389.7816    5565.6305     2346.171    7911.8015    10665.578   -1901.3665    13378.423   -2065.3321    1827.4484    2828.5066   -244.45192            0    4411.5031   -13542.389   -56.352914    38.190939    38.190939    38.190939            0            0            0   0.86008192 
   60000    55667.715    311.24415    3929.4297    5565.6305    2345.7545     7911.385    11101.518   -1898.1945    13378.454   -2062.1372     1823.837    2828.5066   -244.45192            0    4407.8917   -13542.396   -56.388949    38.182802    38.182802    38.182802            0            0            0   0.86063189 
   61000    55632.134    311.24415    4469.4993    5565.6305    2345.5772    7911.2077    11537.481   -1895.0065    13378.448   -2058.9627    1820.4852    2828.5066   -244.45192            0    4404.5399   -13542.404   -56.425014    38.174665    38.174665    38.174665            0            0            0   0.86118233 
   62000    55596.568    311.24415     5009.715    5565.6305    2345.5842    7911.2147    11973.186   -1891.7972    13378.345   -2055.8636    1817.3931    2828.5066   -244.45192            0    4401.4478   -13542.411   -56.461109    38.166529    38.166529    38.166529            0            0            0   0.86173324 
   63000    55561.017    311.24415    5550.6131    5565.6305    2345.8884    7911.5189    12409.183   -1888.5669    13378.259   -2052.7269    1814.5606    2828.5066   -244.45192            0    4398.6153   -13542.419   -56.497236    38.158392    38.158392    38.158392            0            0            0   0.86228462 
   64000    55525.482    311.24415    6092.5188    5565.6305    2346.5565    7912.1869      12845.8   -1885.3165    13378.257    -2049.486    1811.9878    2828.5066   -244.45192            0    4396.0425   -13542.427   -56.533393    38.150255    38.150255    38.150255            0            0            0   0.86283647 
   65000    55489.962    311.24415    6634.8548    5565.6305     2347.467    7913.0975    13282.448   -1882.0483     13378.22   -2046.2624    1809.6746    2828.5066   -244.45192            0    4393.7294   -13542.434   -56.569582    38.142118    38.142118    38.142118            0            0            0   0.86338879 
   66000    55454.456    311.24415    7179.2551    5565.6305    2348.9605    7914.5909    13720.787   -1878.7612    13378.488   -2042.7154    1807.6211    2828.5066   -244.45192            0    4391.6759   -13542.442   -56.605801    38.133981    38.133981    38.133981            0            0            0   0.86394158 
   67000    55418.966    311.24415    7723.1667    5565.6305    2350.5038    7916.1343     14158.22   -1875.4544    13378.526   -2039.3782    1805.8273    2828.5066   -244.45192            0     4389.882   -13542.449   -56.642051    38.125845    38.125845    38.125845            0            0            0   0.86449484 
   68000    55383.491    311.24415    8267.7453    5565.6305    2352.3397    7917.9702    14595.922   -1872.1263    13378.575   -2036.0081    1804.2931    2828.5066   -244.45192            0    4388.3478   -13542.457   -56.678332    38.117708    38.117708    38.117708            0            0            0   0.86504858 
   69000    55348.032    311.24415    8812.7611    5565.6305    2354.4222    7920.0527    15033.663   -1868.7766     13378.59   -2032.6511    1803.0186    2828.5066   -244.45192            0    4387.0733   -13542.464   -56.714644    38.109571    38.109571    38.109571            0            0            0   0.86560279 
   70000    55312.587    311.24415    9357.3154    5565.6305    2356.5587    7922.1892    15470.523   -1865.4102    13378.383   -2029.4997    1802.0037    2828.5066   -244.45192            0    4386.0584   -13542.472   -56.750987    38.101434    38.101434    38.101434            0            0            0   0.86615747 
   71000    55277.158    311.24415    9904.0208    5565.6305    2359.2938    7924.9242    15909.156   -1862.0236    13378.494   -2026.0094    1801.2485    2828.5066   -244.45192            0    4385.3032    -13542.48   -56.787361    38.093297    38.093297    38.093297            0            0            0   0.86671263 
   72000    55241.743    311.24415    10450.756    5565.6305    2362.1885     7927.819    16347.409   -1858.6173    13378.485   -2022.6191    1800.7529    2828.5066   -244.45192            0    4384.8076   -13542.487   -56.823766    38.085161    38.085161    38.085161            0            0            0   0.86726826 
   73000    55206.344    311.24415    10997.346    5565.6305     2365.207    7930.8374    16785.107   -1855.1898     13378.32   -2019.3648     1800.517    2828.5066   -244.45192            0    4384.5717   -13542.495   -56.860203    38.077024    38.077024    38.077024            0            0            0   0.86782437 
   74000     55170.96    311.24415    11545.572    5565.6305    2368.7155    7934.3459     17224.05   -1851.7443    13378.367     -2015.88    1800.5407    2828.5066   -244.45192            0    4384.5955   -13542.502    -56.89667    38.068887    38.068887    38.068887            0            0            0   0.86838095 
   75000    55135.591    311.24415    12093.868    5565.6305    2372.3899    7938.0204    17662.652   -1848.2781    13378.299   -2012.4889    1800.8241    2828.5066   -244.45192            0    4384.8789    -13542.51   -56.933169     38.06075     38.06075     38.06075            0            0            0   0.86893801 
   76000    55100.237    311.24415    12643.628    5565.6305    2376.5208    7942.1512    18102.324    -1844.791    13378.407   -2008.9011    1801.3672    2828.5066   -244.45192            0    4385.4219   -13542.517   -56.969699    38.052613    38.052613    38.052613            0            0            0   0.86949554 
   77000    55064.898    311.24415    13193.656    5565.6305    2380.8588    7946.4892    18541.854   -1841.2858    13378.445   -2005.3659    1802.1699    2828.5066   -244.45192            0    4386.2246   -13542.525    -57.00626    38.044477    38.044477    38.044477            0            0            0   0.87005356 
   78000    55029.575    311.24415    13743.151    5565.6305    2385.2383    7950.8688    18980.434   -1837.7596    13378.243   -2002.0486    1803.2323    2828.5066   -244.45192            0     4387.287   -13542.533   -57.042852     38.03634     38.03634     38.03634            0            0            0   0.87061205 
   79000    54994.266    311.24415    14293.216    5565.6305    2389.8871    7955.5176    19419.176   -1834.2127    13378.031   -1998.7219    1804.5543    2828.5066   -244.45192            0     4388.609    -13542.54   -57.079476    38.028203    38.028203    38.028203            0            0            0   0.87117101 
   80000    54958.973    311.24415    14844.731    5565.6305    2394.9884    7960.6189    19858.971   -1830.6454    13377.991   -1995.2023    1806.1359    2828.5066   -244.45192            0    4390.1907   -13542.548   -57.116131    38.020066    38.020066    38.020066            0            0            0   0.87173046 
   81000    54923.694    311.24415    15396.183    5565.6305    2400.2283    7965.8587     20298.29   -1827.0574    13377.809   -1991.8037    1807.9773    2828.5066   -244.45192            0     4392.032   -13542.555   -57.152818    38.011929    38.011929    38.011929            0            0            0   0.87229039 
   82000    54888.431    311.24415    15950.165    5565.6305    2406.1408    7971.7712    20739.743   -1823.4512    13378.022   -1987.9922    1810.0783    2828.5066   -244.45192            0     4394.133   -13542.563   -57.189536    38.003793    38.003793    38.003793            0            0            0   0.87285079 
   83000    54853.183    311.24415    16504.556    5565.6305    2412.2898    7977.9202    21181.193   -1819.8218    13378.188   -1984.2039    1812.4389    2828.5066   -244.45192            0    4396.4936    -13542.57   -57.226285    37.995656    37.995656    37.995656            0            0            0   0.87341168 
   84000     54817.95    311.24415    17058.181    5565.6305    2418.4328    7984.0633    21621.457   -1816.1708    13378.068   -1980.6811    1815.0592    2828.5066   -244.45192            0    4399.1139   -13542.578   -57.263066    37.987519    37.987519    37.987519            0            0            0   0.87397304 
   85000    54782.732    311.24415    17613.717    5565.6305     2425.121    7990.7514     22063.23   -1812.4987    13378.211   -1976.8729    1817.9392    2828.5066   -244.45192            0    4401.9939   -13542.585   -57.299879    37.979382    37.979382    37.979382            0            0            0   0.87453489 
   86000    54747.529    311.24415    18171.108    5565.6305    2432.3403    7997.9708    22506.448   -1808.8091    13378.609   -1972.7932    1821.0788    2828.5066   -244.45192            0    4405.1335   -13542.593   -57.336723    37.971245    37.971245    37.971245            0            0            0   0.87509722 
   87000    54712.342    311.24415    18727.319    5565.6305    2439.4708    8005.1012    22948.067   -1805.0928    13378.631    -1969.062     1824.478    2828.5066   -244.45192            0    4408.5327     -13542.6   -57.373598    37.963109    37.963109    37.963109            0            0            0   0.87566003 
   88000    54677.169    311.24415    19284.419    5565.6305    2446.9326     8012.563    23390.159   -1801.3604    13378.709   -1965.2591    1828.1369    2828.5066   -244.45192            0    4412.1917   -13542.608   -57.410506    37.954972    37.954972    37.954972            0            0            0   0.87622332 
   89000    54642.011    311.24415     19840.78    5565.6305    2454.3943    8020.0247    23831.097   -1797.6048    13378.504    -1961.716    1832.0555    2828.5066   -244.45192            0    4416.1102   -13542.615   -57.447444    37.946835    37.946835    37.946835            0            0            0    0.8767871 
   90000    54606.869    311.24415    20399.329    5565.6305     2462.456    8028.0865     24273.81   -1793.8278    13378.618   -1957.8324    1836.2337    2828.5066   -244.45192            0    4420.2885   -13542.623   -57.484415    37.938698    37.938698    37.938698            0            0            0   0.87735136 
   91000    54571.741    311.24415    20958.245    5565.6305    2470.7446    8036.3751    24716.474   -1790.0287    13378.677   -1953.9817    1840.6716    2828.5066   -244.45192            0    4424.7264   -13542.631   -57.521417    37.930561    37.930561    37.930561            0            0            0    0.8779161 
   92000    54536.629    311.24415    21516.618    5565.6305    2479.0719    8044.7024    25158.176   -1786.2107    13378.497    -1950.352    1845.3692    2828.5066   -244.45192            0    4429.4239   -13542.638   -57.558451    37.922425    37.922425    37.922425            0            0            0   0.87848133 
   93000    54501.532    311.24415    22077.582    5565.6305    2488.0801    8053.7105    25602.053   -1782.3712    13378.716    -1946.301    1850.3264    2828.5066   -244.45192            0    4434.3811   -13542.646   -57.595517    37.914288    37.914288    37.914288            0            0            0   0.87904705 
   94000    54466.449    311.24415    22638.471    5565.6305    2497.2232    8062.8537    26045.435   -1778.5096    13378.788   -1942.3748    1855.5432    2828.5066   -244.45192            0    4439.5979   -13542.653   -57.632615    37.906151    37.906151    37.906151            0            0            0   0.87961325 
   95000    54431.382    311.24415    23198.912    5565.6305    2506.4254    8072.0558    26487.953   -1774.6271    13378.639   -1938.6491    1861.0197    2828.5066   -244.45192            0    4445.0744   -13542.661   -57.669745    37.898014    37.898014    37.898014            0            0            0   0.88017994 
   96000     54396.33    311.24415    23758.976    5565.6305     2515.703    8081.3335    26929.678   -1770.7204    13378.281   -1935.1076    1866.7559    2828.5066   -244.45192            0    4450.8106   -13542.668   -57.706906    37.889877    37.889877    37.889877            0            0            0   0.88074711 
   97000    54361.293    311.24415    24320.941    5565.6305    2525.5189    8091.1493    27372.882   -1766.7919     13378.18   -1931.2876    1872.7517    2828.5066   -244.45192            0    4456.8064   -13542.676   -57.744099    37.881741    37.881741    37.881741            0            0            0   0.88131477 
   98000    54326.271    311.24415    24884.823    5565.6305    2535.8759    8101.5064    27817.576   -1762.8416    13378.339    -1927.186    1879.0072    2828.5066   -244.45192            0    4463.0619   -13542.683   -57.781325    37.873604    37.873604    37.873604            0            0            0   0.88188292 
   99000    54291.264    311.24415    25448.876    5565.6305     2546.418    8112.0485     28262.02   -1758.8698    13378.401    -1923.159    1885.5223    2828.5066   -244.45192            0     4469.577   -13542.691   -57.818582    37.865467    37.865467    37.865467            0            0            0   0.88245156 
  100000    54256.272    311.24415    26012.166    5565.6305    2556.9567    8122.5872    28705.288   -1754.8727    13378.176   -1919.3951    1892.2971    2828.5066   -244.45192            0    4476.3518   -13542.698   -57.855872     37.85733     37.85733     37.85733            0            0            0   0.88302069 
  101000    54221.295    311.24415    26576.927    5565.6305     2567.944    8133.5745    29149.597   -1750.8554    13378.119   -1915.4422    1899.3315    2828.5066   -244.45192            0    4483.3862   -13542.706   -57.893193    37.849193    37.849193    37.849193            0            0            0    0.8835903 
  102000    54186.333    311.24415     27142.08    5565.6305     2579.162    8144.7925    29593.878    -1746.814    13378.009   -1911.5183    1906.6256    2828.5066   -244.45192            0    4490.6803   -13542.713   -57.930547    37.841057    37.841057    37.841057            0            0            0   0.88416041 
  103000    54151.386    311.24415    27708.432    5565.6305    2590.7709    8156.4014    30038.925   -1742.7555    13378.013   -1907.4632    1914.1794    2828.5066   -244.45192            0    4498.2341   -13542.721   -57.967933     37.83292     37.83292     37.83292            0            0            0   0.88473101 
  104000    54116.455    311.24415    28275.671    5565.6305    2602.7128    8168.3432    30484.436   -1738.6704    13378.064   -1903.3347    1921.9928    2828.5066   -244.45192            0    4506.0475   -13542.728    -58.00535    37.824783    37.824783    37.824783            0            0            0    0.8853021 
  105000    54081.538    311.24415     28843.38    5565.6305    2614.8996    8180.5301    30929.989    -1734.563    13378.078    -1899.221    1930.0658    2828.5066   -244.45192            0    4514.1206   -13542.736   -58.042801    37.816646    37.816646    37.816646            0            0            0   0.88587368 
  106000    54046.636    311.24415    29410.514    5565.6305    2627.1191    8192.7495    31374.551   -1730.4329    13377.842   -1895.3342    1938.3985    2828.5066   -244.45192            0    4522.4533   -13542.743   -58.080283    37.808509    37.808509    37.808509            0            0            0   0.88644575 
  107000    54011.749    311.24415    29978.997    5565.6305    2639.7609    8205.3914    31820.026   -1726.2807    13377.746   -1891.2847    1946.9909    2828.5066   -244.45192            0    4531.0456   -13542.751   -58.117798    37.800373    37.800373    37.800373            0            0            0   0.88701831 
  108000    53976.878    311.24415    30547.048    5565.6305    2652.4662    8218.0967    32264.653   -1722.1047    13377.431   -1887.4315    1955.8429    2828.5066   -244.45192            0    4539.8977   -13542.758   -58.155345    37.792236    37.792236    37.792236            0            0            0   0.88759137 
  109000    53942.021    311.24415    31117.168    5565.6305      2665.74    8231.3705    32710.906   -1717.9073    13377.404   -1883.2693    1964.9546    2828.5066   -244.45192            0    4549.0094   -13542.766   -58.192924    37.784099    37.784099    37.784099            0            0            0   0.88816492 
  110000    53907.179    311.24415    31687.486    5565.6305    2679.2016     8244.832    33156.929   -1713.6879    13377.282   -1879.1791     1974.326    2828.5066   -244.45192            0    4558.3807   -13542.773   -58.230536    37.775962    37.775962    37.775962            0            0            0   0.88873897 
  111000    53872.352    311.24415    32257.605    5565.6305    2692.7732    8258.4037    33602.333   -1709.4442    13376.986   -1875.2385     1983.957    2828.5066   -244.45192            0    4568.0117    -13542.78    -58.26818    37.767825    37.767825    37.767825            0            0            0   0.88931351 
  112000    53837.541    311.24415    32830.881    5565.6305    2707.1323    8272.7627    34050.432   -1705.1801    13377.198   -1870.7701    1993.8476    2828.5066   -244.45192            0    4577.9023   -13542.788   -58.305856    37.759689    37.759689    37.759689            0            0            0   0.88988854 
  113000    53802.744    311.24415    33403.072    5565.6305    2721.4208    8287.0513    34497.033   -1700.8908    13377.054   -1866.6318    2003.9979    2828.5066   -244.45192            0    4588.0526   -13542.795   -58.343565    37.751552    37.751552    37.751552            0            0            0   0.89046408 
  114000    53767.962    311.24415    33976.257    5565.6305    2736.0607    8301.6912    34944.192   -1696.5756    13376.977   -1862.4019    2014.4079    2828.5066   -244.45192            0    4598.4626   -13542.803   -58.381307    37.743415    37.743415    37.743415            0            0            0    0.8910401 
  115000    53733.196    311.24415    34550.888    5565.6305    2751.1409    8316.7714    35392.352   -1692.2383    13377.057   -1857.9913    2025.0775    2828.5066   -244.45192            0    4609.1322    -13542.81   -58.419081    37.735278    37.735278    37.735278            0            0            0   0.89161663 
  116000    53698.444    311.24415    35126.032    5565.6305    2766.4718    8332.1023    35840.588   -1687.8799    13377.108   -1853.5897    2036.0068    2828.5066   -244.45192            0    4620.0615   -13542.818   -58.456888    37.727141    37.727141    37.727141            0            0            0   0.89219365 
  117000    53663.707    311.24415     35703.35    5565.6305    2782.3902    8348.0206    36290.538    -1683.497    13377.462   -1848.8602    2047.1957    2828.5066   -244.45192            0    4631.2504   -13542.825   -58.494727    37.719005    37.719005    37.719005            0            0            0   0.89277117 
  118000    53628.985    311.24415     36278.85    5565.6305     2798.091    8363.7215    36738.271   -1679.0901    13377.315    -1844.608    2058.6443    2828.5066   -244.45192            0     4642.699   -13542.833   -58.532599    37.710868    37.710868    37.710868            0            0            0   0.89334919 
  119000    53594.279    311.24415    36855.022    5565.6305    2814.0753    8379.7058    37186.239   -1674.6586    13377.167   -1840.3319    2070.3525    2828.5066   -244.45192            0    4654.4072    -13542.84   -58.570504    37.702731    37.702731    37.702731            0            0            0   0.89392771 
  120000    53559.587    311.24415    37431.276    5565.6305    2830.2251    8395.8556    37633.861   -1670.2028    13376.901     -1836.15    2082.3204    2828.5066   -244.45192            0    4666.3751   -13542.848   -58.608442    37.694594    37.694594    37.694594            0            0            0   0.89450673 
  121000     53524.91    311.24415    38008.003    5565.6305    2846.6196    8412.2501    38081.522   -1665.7215    13376.594    -1831.983    2094.5479    2828.5066   -244.45192            0    4678.6027   -13542.855   -58.646412    37.686457    37.686457    37.686457            0            0            0   0.89508624 
  122000    53490.248    311.24415    38586.284    5565.6305     2863.474    8429.1045     38530.28   -1661.2178    13376.465   -1827.6159    2107.0351    2828.5066   -244.45192            0    4691.0899   -13542.863   -58.684415    37.678321    37.678321    37.678321            0            0            0   0.89566626 
  123000    53455.601    311.24415    39165.618    5565.6305    2880.6866    8446.3171    38979.642    -1656.692    13376.412   -1823.1501     2119.782    2828.5066   -244.45192            0    4703.8367    -13542.87   -58.722451    37.670184    37.670184    37.670184            0            0            0   0.89624678 
  124000    53420.969    311.24415    39744.556    5565.6305    2897.9696    8463.6001    39428.188   -1652.1384    13376.142   -1818.8736    2132.7885    2828.5066   -244.45192            0    4716.8432   -13542.877    -58.76052    37.662047    37.662047    37.662047            0            0            0   0.89682781 
  125000    53386.352    311.24415    40325.732    5565.6305     2915.849    8481.4795    39878.497   -1647.5633    13376.188   -1814.2604    2146.0547    2828.5066   -244.45192            0    4730.1094   -13542.885   -58.798621     37.65391     37.65391     37.65391            0            0            0   0.89740933 
  126000     53351.75    311.24415      40907.2    5565.6305    2933.9349    8499.5653    40328.662   -1642.9621    13376.154   -1809.7004    2159.5805    2828.5066   -244.45192            0    4743.6352   -13542.892   -58.836756    37.645773    37.645773    37.645773            0            0            0   0.89799136 
  127000    53317.163    311.24415    41489.755    5565.6305    2952.3846    8518.0151    40779.459   -1638.3392    13376.203   -1805.0361     2173.366    2828.5066   -244.45192            0    4757.4207     -13542.9   -58.874924    37.637637    37.637637    37.637637            0            0            0   0.89857389 
  128000    53282.591    311.24415    42071.662    5565.6305    2970.8538    8536.4843    41229.192   -1633.6896    13375.985    -1800.612    2187.4111    2828.5066   -244.45192            0    4771.4658   -13542.907   -58.913124      37.6295      37.6295      37.6295            0            0            0   0.89915692 
  129000    53248.034    311.24415    42655.229    5565.6305    2989.8026    8555.4331    41680.117   -1629.0166    13375.963    -1795.968    2201.7159    2828.5066   -244.45192            0    4785.7706   -13542.915   -58.951358    37.621363    37.621363    37.621363            0            0            0   0.89974046 
  130000    53213.492    311.24415    43240.338    5565.6305    3009.2055    8574.8359    42132.114   -1624.3195    13376.112   -1791.1296    2216.2804    2828.5066   -244.45192            0    4800.3351   -13542.922   -58.989625    37.613226    37.613226    37.613226            0            0            0    0.9003245 
  131000    53178.965    311.24415    43825.721    5565.6305    3028.8112    8594.4416    42583.946   -1619.5973    13376.179    -1786.348    2231.1045    2828.5066   -244.45192            0    4815.1592    -13542.93   -59.027925    37.605089    37.605089    37.605089            0            0            0   0.90090905 
  132000    53144.452    311.24415     44411.72    5565.6305     3048.687    8614.3175    43035.946     -1614.85    13376.231   -1781.5559    2246.1882    2828.5066   -244.45192            0    4830.2429   -13542.937   -59.066258    37.596953    37.596953    37.596953            0            0            0   0.90149411 
  133000    53109.955    311.24415    44998.016    5565.6305    3068.7696       8634.4    43487.803   -1610.0772    13376.205   -1776.8168    2261.5316    2828.5066   -244.45192            0    4845.5864   -13542.944   -59.104624    37.588816    37.588816    37.588816            0            0            0   0.90207967 
  134000    53075.472    311.24415    45584.253    5565.6305    3088.9866    8654.6171    43939.169   -1605.2801    13376.029   -1772.2028    2277.1347    2828.5066   -244.45192            0    4861.1894   -13542.952   -59.143024    37.580679    37.580679    37.580679            0            0            0   0.90266574 
  135000    53041.005    311.24415    46171.359    5565.6305    3109.5241    8675.1545    44390.947   -1600.4582    13375.889   -1767.5281    2292.9974    2828.5066   -244.45192            0    4877.0521   -13542.959   -59.181456    37.572542    37.572542    37.572542            0            0            0   0.90325232 
  136000    53006.552    311.24415    46760.165    5565.6305    3130.5467    8696.1772    44843.945   -1595.6115     13375.95   -1762.6278    2309.1198    2828.5066   -244.45192            0    4893.1745   -13542.967   -59.219922    37.564405    37.564405    37.564405            0            0            0    0.9038394 
  137000    52972.115    311.24415    47348.965    5565.6305     3151.715    8717.3455    45296.502    -1590.739    13375.872   -1757.8415    2325.5018    2828.5066   -244.45192            0    4909.5566   -13542.974   -59.258422    37.556269    37.556269    37.556269            0            0            0     0.904427 
  138000    52937.692    311.24415    47938.782    5565.6305    3173.2336    8738.8641    45749.614   -1585.8379    13375.855   -1752.9646    2342.1435    2828.5066   -244.45192            0    4926.1982   -13542.982   -59.296955    37.548132    37.548132    37.548132            0            0            0    0.9050151 
  139000    52903.284    311.24415    48530.603    5565.6305     3195.296    8760.9265    46204.235   -1580.9141    13376.099   -1747.8036    2359.0449    2828.5066   -244.45192            0    4943.0996   -13542.989   -59.335521    37.539995    37.539995    37.539995            0            0            0   0.90560372 
  140000    52868.891    311.24415    49122.702    5565.6305    3217.5609    8783.1913    46658.688   -1575.9633     13376.26   -1742.6997    2376.2059    2828.5066   -244.45192            0    4960.2606   -13542.996   -59.374121    37.531858    37.531858    37.531858            0            0            0   0.90619284 
  141000    52834.513    311.24415    49713.567    5565.6305    3239.7255     8805.356    47111.508   -1570.9872    13376.035   -1737.9557    2393.6265    2828.5066   -244.45192            0    4977.6812   -13543.004   -59.412754    37.523721    37.523721    37.523721            0            0            0   0.90678248 
  142000     52800.15    311.24415    50304.794    5565.6305    3262.1084    8827.7389    47564.243   -1565.9867    13375.745   -1733.2531    2411.3068    2828.5066   -244.45192            0    4995.3616   -13543.011    -59.45142    37.515585    37.515585    37.515585            0            0            0   0.90737262 
  143000    52765.802    311.24415    50897.291    5565.6305    3284.8912    8850.5216    48017.774   -1560.9578    13375.566   -1728.4104    2429.2468    2828.5066   -244.45192            0    5013.3015   -13543.019   -59.490121    37.507448    37.507448    37.507448            0            0            0   0.90796328 
  144000    52731.468    311.24415    51492.101    5565.6305    3308.2768    8873.9073    48473.103   -1555.9051    13375.707   -1723.2244    2447.4464    2828.5066   -244.45192            0    5031.5011   -13543.026   -59.528855    37.499311    37.499311    37.499311            0            0            0   0.90855446 
  145000     52697.15    311.24415    52087.258    5565.6305    3331.8778    8897.5083    48928.331   -1550.8232    13375.774   -1718.0826    2465.9057    2828.5066   -244.45192            0    5049.9604   -13543.033   -59.567622    37.491174    37.491174    37.491174            0            0            0   0.90914614 
  146000    52662.846    311.24415    52682.275    5565.6305    3355.5974    8921.2279    49382.985   -1545.7162    13375.675   -1713.0819    2484.6246    2828.5066   -244.45192            0    5068.6794   -13543.041   -59.606423    37.483037    37.483037    37.483037            0            0            0   0.90973834 
  147000    52628.558    311.24415    53278.926    5565.6305    3379.7862    8945.4167    49838.779   -1540.5821    13375.758   -1707.8717    2503.6032    2828.5066   -244.45192            0    5087.6579   -13543.048   -59.645258    37.474901    37.474901    37.474901            0            0            0   0.91033106 
  148000    52594.284    311.24415    53875.864    5565.6305     3404.176    8969.8064    50294.409    -1535.423    13375.758   -1702.7202    2522.8415    2828.5066   -244.45192            0    5106.8962   -13543.056   -59.684127    37.466764    37.466764    37.466764            0            0            0   0.91092429 
  149000    52560.025    311.24415    54473.812    5565.6305    3428.9122    8994.5427    50750.575   -1530.2348    13375.816   -1697.4819    2542.3394    2828.5066   -244.45192            0    5126.3941   -13543.063   -59.723029    37.458627    37.458627    37.458627            0            0            0   0.91151803 
  150000    52525.781    311.24415    55072.374    5565.6305    3453.9148    9019.5452    51206.891   -1525.0212    13375.855   -1692.2369    2562.0969    2828.5066   -244.45192            0    5146.1516    -13543.07   -59.761965     37.45049     37.45049     37.45049            0            0            0   0.91211229 
  150601    52505.208    311.24415     55432.28    5565.6305     3469.046    9034.6765    51481.091   -1521.8723    13375.842   -1689.1048    2574.0961    2828.5066   -244.45192            0    5158.1509   -13543.075   -59.785382      37.4456      37.4456      37.4456            0            0            0   0.91246969 
Loop time of 478.201 on 48 procs for 100000 steps with 6000 atoms

Performance: 18.068 ns/day, 1.328 hours/ns, 209.117 timesteps/s
73.4% CPU use with 48 MPI tasks x 1 OpenMP threads

MPI task timing breakdown:
Section |  min time  |  avg time  |  max time  |%varavg| %total
---------------------------------------------------------------
Pair    | 205.17     | 258.74     | 297.9      | 117.6 | 54.11
Bond    | 7.4692     | 9.3027     | 11.919     |  28.4 |  1.95
Kspace  | 57.043     | 93.283     | 149.1      | 197.5 | 19.51
Neigh   | 0.051124   | 0.052728   | 0.054004   |   0.5 |  0.01
Comm    | 83.134     | 94.752     | 115.48     |  69.8 | 19.81
Output  | 0.10667    | 0.11933    | 0.13347    |   1.4 |  0.02
Modify  | 0.89634    | 1.0692     | 1.6071     |  17.5 |  0.22
Other   |            | 20.88      |            |       |  4.37

Nlocal:    125 ave 136 max 102 min
Histogram: 1 0 1 1 4 9 9 11 7 5
Nghost:    7378.12 ave 7450 max 7297 min
Histogram: 4 3 2 7 6 4 8 5 6 3
Neighs:    100825 ave 111455 max 77609 min
Histogram: 1 0 0 1 4 11 8 10 7 6

Total # of neighbors = 4839603
Ave neighs/atom = 806.601
Ave special neighs/atom = 10.5333
Neighbor list builds = 10
Dangerous builds = 0
# >>>>>>>>>  Equilibration run <<<<<<<<<<<<<<<<<<<<<<<<<<<<<<<<<<

fix             NVT_equib all nvt temp ${simulationTemp} ${simulationTemp} 100
fix             NVT_equib all nvt temp 310 ${simulationTemp} 100
fix             NVT_equib all nvt temp 310 310 100

print           "Step Density Temperature Pressure KinEng PotEng TotEng" file Properties_equib_NoctanolN.txt
Step Density Temperature Pressure KinEng PotEng TotEng
fix             PRINT_equib all print ${printfreq} "$(v_step) $(v_density) $(v_temp) $(v_press) $(v_pe) $(v_ke) $(v_etotal) $(v_enthalpy)" append Properties_equib_NoctanolN.txt title ""
fix             PRINT_equib all print 1000 "$(v_step) $(v_density) $(v_temp) $(v_press) $(v_pe) $(v_ke) $(v_etotal) $(v_enthalpy)" append Properties_equib_NoctanolN.txt title ""
# The 'print' and fix print' commands as used above will create a file named 'Properties_equib.txt' which allows you to quickly make plots to test for equilibration


run             ${NVT_equib}
run             100000
Ewald initialization ...
  using 12-bit tables for long-range coulomb (src/kspace.cpp:332)
  G vector (1/distance) = 0.158542
  estimated absolute RMS force accuracy = 0.0334255
  estimated relative force accuracy = 0.00010066
  KSpace vectors: actual max1d max3d = 257 5 665
                  kxmax kymax kzmax  = 5 5 5
Per MPI rank memory allocation (min/avg/max) = 23.78 | 23.83 | 24.02 Mbytes
Step Volume Temp Press KinEng PotEng TotEng Enthalpy E_vdwl E_coul E_pair E_bond E_angle E_dihed E_impro E_mol E_long E_tail Lx Ly Lz Xy Xz Yz Density 
  150601    52505.208    311.24415    55432.738    5565.6305    3469.0415     9034.672    51481.438   -1521.8671     13420.24   -1689.1294    2574.1162    2828.5066   -244.45192            0    5158.1709   -13587.502   -59.785382      37.4456      37.4456      37.4456            0            0            0   0.91246969 
151000 0.91246968973961695148 318.18407725551998055 2603.4219678114000089 2083.606683275890191 5689.7293251041601252 7773.336008380039857 9766.8662850407708902
  151000    52505.208    318.18408     2603.422    5689.7293    2083.6067     7773.336    9766.8663   -1945.4669    13269.967   -2263.0177    1870.2479    2712.9026   -236.52612            0    4346.6244   -13587.518   -59.785382      37.4456      37.4456      37.4456            0            0            0   0.91246969 
152000 0.91246968973961695148 312.91610867618101111 938.09471619478597404 2178.1106392543001675 5595.5281458115596251 7773.6387850658602474 8491.9703664352400665
  152000    52505.208    312.91611    938.09472    5595.5281    2178.1106    7773.6388    8491.9704   -1975.6929    13201.384   -2361.1414    1905.0832     2796.277    -162.1082            0     4539.252   -13586.833   -59.785382      37.4456      37.4456      37.4456            0            0            0   0.91246969 
153000 0.91246968973961695148 311.75113276852198396 2241.8822305271100959 2130.3994876755500627 5574.6961870221102799 7705.0956746976598879 9421.7824655910408183
  153000    52505.208    311.75113    2241.8822    5574.6962    2130.3995    7705.0957    9421.7825   -2013.7405    13283.674   -2315.8261    1836.5026    2810.7825   -201.05958            0    4446.2256    -13585.76   -59.785382      37.4456      37.4456      37.4456            0            0            0   0.91246969 
154000 0.91246968973961695148 309.58240382140900238 1511.4538760705399909 2311.8878203113299605 5535.9152373434799301 7847.8030576548098907 9005.1755854190396349
  154000    52505.208     309.5824    1511.4539    5535.9152    2311.8878    7847.8031    9005.1756   -2015.8527    13279.568   -2324.1862    1901.3548    2896.2045   -161.48526            0     4636.074   -13587.901   -59.785382      37.4456      37.4456      37.4456            0            0            0   0.91246969 
155000 0.91246968973961695148 307.17739583817001403 1319.0095963937999386 2159.2874559174301794 5492.9091744148299767 7652.1966303322597014 8662.2079147601907607
  155000    52505.208     307.1774    1319.0096    5492.9092    2159.2875    7652.1966    8662.2079   -1980.5168    13256.651   -2311.6597    1869.2551    2828.9967   -227.30463            0    4470.9471   -13587.794   -59.785382      37.4456      37.4456      37.4456            0            0            0   0.91246969 
156000 0.91246968973961695148 307.60016130859497707 1742.7804522669700873 2299.6604901571599839 5500.469015609480266 7800.1295057666402499 9134.6367966025500209
  156000    52505.208    307.60016    1742.7805     5500.469    2299.6605    7800.1295    9134.6368   -1989.3771    13242.272   -2335.7519    1923.8476    2883.1683   -171.60353            0    4635.4124   -13588.647   -59.785382      37.4456      37.4456      37.4456            0            0            0   0.91246969 
157000 0.91246968973961695148 313.30907879318499454 896.0254343336639522 2115.1886834406300295 5602.5551900869795645 7717.7438735276100488 8403.8615502190605184
  157000    52505.208    313.30908    896.02543    5602.5552    2115.1887    7717.7439    8403.8616    -2003.706      13156.3   -2433.1307     1893.974    2851.8254   -197.48003            0    4548.3194   -13585.725   -59.785382      37.4456      37.4456      37.4456            0            0            0   0.91246969 
158000 0.91246968973961695148 308.63729685939000547 1862.2160249090900379 2233.690828096990117 5519.0149485435404131 7752.7057766405296206 9178.6690178049702808
  158000    52505.208     308.6373     1862.216    5519.0149    2233.6908    7752.7058     9178.669   -1984.8716     13241.18   -2333.3953    1895.5798    2863.5627   -192.05639            0    4567.0861   -13589.703   -59.785382      37.4456      37.4456      37.4456            0            0            0   0.91246969 
159000 0.91246968973961695148 305.16459525622099136 2568.2438340338699163 2231.4645094959801099 5456.9165169711095587 7688.3810264671001278 9654.9741889646193158
  159000    52505.208     305.1646    2568.2438    5456.9165    2231.4645     7688.381    9654.9742   -1994.0734    13220.889   -2361.8951    1896.8906    2899.8743   -203.40527            0    4593.3596   -13588.711   -59.785382      37.4456      37.4456      37.4456            0            0            0   0.91246969 
160000 0.91246968973961695148 310.81829127556198955 576.06896432459598145 2097.0732249380798748 5558.0152278617797492 7655.0884527998596241 8096.2043902178302233
  160000    52505.208    310.81829    576.06896    5558.0152    2097.0732    7655.0885    8096.2044    -2002.403     13237.37   -2353.4165    1879.5765    2812.8873   -241.97408            0    4450.4897   -13588.384   -59.785382      37.4456      37.4456      37.4456            0            0            0   0.91246969 
161000 0.91246968973961695148 310.00690460666402259 1221.0480560707001132 2211.8270839922502091 5543.5061092287796782 7755.3331932210403465 8690.3319368480697449
  161000    52505.208     310.0069    1221.0481    5543.5061    2211.8271    7755.3332    8690.3319   -2019.4712    13235.059    -2371.749     1932.756    2870.8464   -220.02629            0    4583.5761   -13587.337   -59.785382      37.4456      37.4456      37.4456            0            0            0   0.91246969 
162000 0.91246968973961695148 306.42160584355798392 756.46788934982203045 2164.3802803180601586 5479.3942288114703842 7643.7745091295300881 8223.02814506940922
  162000    52505.208    306.42161    756.46789    5479.3942    2164.3803    7643.7745    8223.0281   -2041.0186    13255.683   -2373.6728    1897.2695    2839.8953   -199.11178            0    4538.0531   -13588.337   -59.785382      37.4456      37.4456      37.4456            0            0            0   0.91246969 
163000 0.91246968973961695148 305.81653659753402508 1790.3730696138600251 2320.4723730060500202 5468.5744534709801883 7789.0468264770397582 9159.9974310744601098
  163000    52505.208    305.81654    1790.3731    5468.5745    2320.4724    7789.0468    9159.9974   -2026.0254     13279.27   -2335.1172    1902.3459    2933.3526   -180.10896            0    4655.5896   -13588.361   -59.785382      37.4456      37.4456      37.4456            0            0            0   0.91246969 
164000 0.91246968973961695148 308.84277494539600184 1829.3176103851099015 2185.3306483986098101 5522.6892829153202911 7708.0199313139200967 9108.7917182237106317
  164000    52505.208    308.84277    1829.3176    5522.6893    2185.3306    7708.0199    9108.7917   -2015.2235    13243.607   -2362.0426    1889.9402    2871.0741   -213.64104            0    4547.3733   -13590.426   -59.785382      37.4456      37.4456      37.4456            0            0            0   0.91246969 
165000 0.91246968973961695148 313.54266035020299341 822.80086441832304445 2176.2705837215698921 5606.732067340640242 7783.0026510622201386 8413.0497410694806604
  165000    52505.208    313.54266    822.80086    5606.7321    2176.2706    7783.0027    8413.0497   -1999.8971    13210.902   -2378.0198     1938.786    2818.7306   -203.22615            0    4554.2904   -13589.024   -59.785382      37.4456      37.4456      37.4456            0            0            0   0.91246969 
166000 0.91246968973961695148 309.77366236612397188 792.71504828115996588 2126.7088142969701039 5539.335299591490184 7666.0441138884598331 8273.0534535390597739
  166000    52505.208    309.77366    792.71505    5539.3353    2126.7088    7666.0441    8273.0535   -2059.0141    13283.245   -2364.3089    1915.2332    2800.5474   -224.76285            0    4491.0177    -13588.54   -59.785382      37.4456      37.4456      37.4456            0            0            0   0.91246969 
167000 0.91246968973961695148 313.79819660120801927 1410.5522530362100042 2128.3281292458800635 5611.3015357864296675 7739.6296650323101858 8819.738328939609346
  167000    52505.208     313.7982    1410.5523    5611.3015    2128.3281    7739.6297    8819.7383   -2051.5798    13283.506   -2356.8762    1866.7529    2820.3668   -201.91536            0    4485.2043   -13588.802   -59.785382      37.4456      37.4456      37.4456            0            0            0   0.91246969 
168000 0.91246968973961695148 309.33897010657602777 2092.6347419769699627 2049.5868356069199763 5531.5621849910403398 7581.1490205979598613 9183.551845688280082
  168000    52505.208    309.33897    2092.6347    5531.5622    2049.5868     7581.149    9183.5518   -2061.5314    13248.223   -2402.4932    1886.5111      2792.73   -227.16111            0    4452.0801   -13589.185   -59.785382      37.4456      37.4456      37.4456            0            0            0   0.91246969 
169000 0.91246968973961695148 313.73058556777402828 1809.8787026674399385 2115.3216149158602093 5610.0925234343803822 7725.4141383502401368 9111.3008810530100163
  169000    52505.208    313.73059    1809.8787    5610.0925    2115.3216    7725.4141    9111.3009   -2015.8547     13246.04   -2357.3494     1894.137    2781.7933   -203.25927            0     4472.671   -13587.534   -59.785382      37.4456      37.4456      37.4456            0            0            0   0.91246969 
170000 0.91246968973961695148 313.01068920299502452 1754.3977431911901022 2137.2788254686997789 5597.2194233941499988 7734.4982488628602368 9077.9013013065905398
  170000    52505.208    313.01069    1754.3977    5597.2194    2137.2788    7734.4982    9077.9013   -2044.7297    13266.547   -2365.6758    1901.3867    2810.0375   -208.46958            0    4502.9546   -13587.493   -59.785382      37.4456      37.4456      37.4456            0            0            0   0.91246969 
171000 0.91246968973961695148 307.64670801620701468 742.8276581983250253 2190.3475754444398262 5501.3013582256498921 7691.6489336700997228 8260.4577726783390972
  171000    52505.208    307.64671    742.82766    5501.3014    2190.3476    7691.6489    8260.4578   -2035.3887    13204.561   -2416.9367    1943.8283    2868.5841   -205.12813            0    4607.2842   -13586.109   -59.785382      37.4456      37.4456      37.4456            0            0            0   0.91246969 
172000 0.91246968973961695148 306.7691748760140058 1838.8967570743400302 2142.7869495572699634 5485.609416364270146 7628.3963659215396547 9036.5032368805696024
  172000    52505.208    306.76917    1838.8968    5485.6094    2142.7869    7628.3964    9036.5032   -2070.9426     13265.19   -2392.3437    1892.1788    2847.0765   -204.12469            0    4535.1306   -13586.591   -59.785382      37.4456      37.4456      37.4456            0            0            0   0.91246969 
173000 0.91246968973961695148 311.83559419361699838 -883.7346156053760069 2284.68241836847983 5576.206516047200239 7860.8889344156796142 7184.1827628750397707
  173000    52505.208    311.83559   -883.73462    5576.2065    2284.6824    7860.8889    7184.1828   -2062.2655    13240.907   -2407.7654    1954.7529    2931.1224   -193.42756            0    4692.4478   -13586.406   -59.785382      37.4456      37.4456      37.4456            0            0            0   0.91246969 
174000 0.91246968973961695148 309.22750652939902238 2569.3988041679499474 2162.5911411336301171 5529.5690067364303104 7692.1601478700604275 9659.6377109601198754
  174000    52505.208    309.22751    2569.3988     5529.569    2162.5911    7692.1601    9659.6377   -2031.1365    13222.776   -2394.1227    1899.9915    2885.7113   -228.98897            0    4556.7138   -13585.762   -59.785382      37.4456      37.4456      37.4456            0            0            0   0.91246969 
175000 0.91246968973961695148 311.47644922712601101 855.99254681874504058 2102.5338622118501917 5569.7843290370001341 7672.318191248849871 8327.7813008705506945
  175000    52505.208    311.47645    855.99255    5569.7843    2102.5339    7672.3182    8327.7813   -2072.7672    13283.231   -2379.1581    1904.8617     2809.957    -233.1268            0    4481.6919   -13589.621   -59.785382      37.4456      37.4456      37.4456            0            0            0   0.91246969 
176000 0.91246968973961695148 307.52700592906501242 1798.534726035399899 2126.0618581323701619 5499.1608599286701065 7625.2227180610498181 9002.4229853659398941
  176000    52505.208    307.52701    1798.5347    5499.1609    2126.0619    7625.2227     9002.423   -2034.6313    13198.099    -2424.699    1907.9328    2875.1251   -232.29701            0    4550.7609   -13588.167   -59.785382      37.4456      37.4456      37.4456            0            0            0   0.91246969 
177000 0.91246968973961695148 311.77714892913201084 2842.3725588815200354 2119.0181309518397939 5575.1614048709197959 7694.179535822770049 9870.6825475275600184
  177000    52505.208    311.77715    2842.3726    5575.1614    2119.0181    7694.1795    9870.6825   -2077.7934    13311.692   -2353.3563    1877.0293    2833.5282   -238.18302            0    4472.3744   -13587.254   -59.785382      37.4456      37.4456      37.4456            0            0            0   0.91246969 
178000 0.91246968973961695148 311.47333128615201758 899.24915231463796772 2113.0043648858600136 5569.7285743922402617 7682.7329392781002753 8371.319128365130382
  178000    52505.208    311.47333    899.24915    5569.7286    2113.0044    7682.7329    8371.3191   -2049.6068    13218.721   -2419.0648    1895.5364    2848.3901   -211.85732            0    4532.0692   -13588.179   -59.785382      37.4456      37.4456      37.4456            0            0            0   0.91246969 
179000 0.91246968973961695148 311.10871345026799872 -82.461135861530593161 2120.8135472746998857 5563.208522191080192 7684.0220694657800777 7620.8787246602496452
  179000    52505.208    311.10871   -82.461136    5563.2085    2120.8135    7684.0221    7620.8787   -2062.1565    13192.229   -2457.7745    1917.0175    2887.8731   -226.30259            0    4578.5881   -13587.847   -59.785382      37.4456      37.4456      37.4456            0            0            0   0.91246969 
180000 0.91246968973961695148 308.1756534985930216 2694.1915578994298812 2016.4235939362799854 5510.7598975984301433 7527.1834915347099013 9590.2191838667495176
  180000    52505.208    308.17565    2694.1916    5510.7599    2016.4236    7527.1835    9590.2192    -2053.582    13211.901   -2428.5855    1864.8024    2823.8988   -243.69213            0    4445.0091   -13586.905   -59.785382      37.4456      37.4456      37.4456            0            0            0   0.91246969 
181000 0.91246968973961695148 310.11521296303300232 1557.4800836798699493 2047.9426808700300171 5545.4428662051395804 7593.3855470751695975 8786.0019344685897522
  181000    52505.208    310.11521    1557.4801    5545.4429    2047.9427    7593.3855    8786.0019   -2070.6785    13195.308   -2465.2634    1894.2424    2850.2804   -231.31671            0     4513.206   -13589.893   -59.785382      37.4456      37.4456      37.4456            0            0            0   0.91246969 
182000 0.91246968973961695148 307.39486306541300564 1853.4022481204199266 2192.9232234084201991 5496.7978971654001725 7689.7211205738103672 9108.9353479029396112
  182000    52505.208    307.39486    1853.4022    5496.7979    2192.9232    7689.7211    9108.9353   -1989.0797     13178.63   -2398.0952    1914.1647    2906.8333   -229.97958            0    4591.0185   -13587.645   -59.785382      37.4456      37.4456      37.4456            0            0            0   0.91246969 
183000 0.91246968973961695148 310.87379648469800486 1034.3760502642799111 2081.87023564384981 5559.0077653226098846 7640.8780009664596946 8432.9355310748305783
  183000    52505.208     310.8738    1034.3761    5559.0078    2081.8702     7640.878    8432.9355   -2038.2079    13193.103   -2434.3919    1858.4666    2891.1377   -233.34226            0    4516.2621   -13589.287   -59.785382      37.4456      37.4456      37.4456            0            0            0   0.91246969 
184000 0.91246968973961695148 309.42315530422899883 1781.8480001039599756 2113.2723750999198273 5533.0675745503003782 7646.3399496502197508 9010.762613564660569
  184000    52505.208    309.42316     1781.848    5533.0676    2113.2724    7646.3399    9010.7626   -1989.9625    13156.299   -2421.2876    1922.5112    2852.7978   -240.74897            0      4534.56   -13587.624   -59.785382      37.4456      37.4456      37.4456            0            0            0   0.91246969 
185000 0.91246968973961695148 308.97572077664199242 720.89201917051400414 2273.1476961205398766 5525.0666042483499041 7798.2143003688897807 8350.2262616214193258
  185000    52505.208    308.97572    720.89202    5525.0666    2273.1477    7798.2143    8350.2263   -2002.9555    13213.523    -2375.347    1925.2298    2927.8067   -204.54182            0    4648.4947   -13585.915   -59.785382      37.4456      37.4456      37.4456            0            0            0   0.91246969 
186000 0.91246968973961695148 312.00705788212297875 2520.6092015725998863 2075.4478917862597882 5579.2726090619798924 7654.7205008482396806 9584.8381771574895538
  186000    52505.208    312.00706    2520.6092    5579.2726    2075.4479    7654.7205    9584.8382   -2023.2409    13184.957   -2427.4311    1870.0046    2878.6517   -245.77738            0    4502.8789   -13589.147   -59.785382      37.4456      37.4456      37.4456            0            0            0   0.91246969 
187000 0.91246968973961695148 302.70923775313701753 -33.032494323867098274 2121.7041947431898734 5413.0101099962103035 7534.7143047394001769 7509.4201809429396235
[...]
253000 0.91246968973961695148 310.63118716444597567 633.12160498649598139 2031.5307791434800038 5554.6694546947201161 7586.2002338381998925 8071.003352177740453
  253000    52505.208    310.63119     633.1216    5554.6695    2031.5308    7586.2002    8071.0034   -2038.0269    13174.255   -2449.2274    1908.3437    2850.5312   -278.11673            0    4480.7582   -13585.455   -59.785382      37.4456      37.4456      37.4456            0            0            0   0.91246969 
254000 0.91246968973961695148 310.50168324943001608 1738.254023544679967 1923.6497663020900291 5552.3536812929396547 7476.0034475950196793 8807.0446953481696255
254000 0.91246968973961695148 310.50168324943001608 1738.254023544679967 1923.6497663020900291 5552.3536812929396547 7476.0034475950196793 8807.0446953481696255
  254000    52505.208    310.50168     1738.254    5552.3537    1923.6498    7476.0034    8807.0447   -2032.9491    13165.843   -2453.3642    1907.9264    2793.6553    -324.5677            0     4377.014   -13586.258   -59.785382      37.4456      37.4456      37.4456            0            0            0   0.91246969 
255000 0.91246968973961695148 310.26147479218599301 2361.7372535262002202 2028.8422087800900044 5548.0583026080303171 7576.9005113881303259 9385.3644402609497774
255000 0.91246968973961695148 310.26147479218599301 2361.7372535262002202 2028.8422087800900044 5548.0583026080303171 7576.9005113881303259 9385.3644402609497774
  255000    52505.208    310.26147    2361.7373    5548.0583    2028.8422    7576.9005    9385.3644   -2030.7856    13189.033   -2428.9819    1941.8602    2810.6881   -294.72421            0    4457.8241    -13587.23   -59.785382      37.4456      37.4456      37.4456            0            0            0   0.91246969 
256000 0.91246968973961695148 313.9041062739530048 1126.3983410052699128 2018.2927146818499295 5613.1953997912796694 7631.4881144731398308 8494.0102964850502758
256000 0.91246968973961695148 313.9041062739530048 1126.3983410052699128 2018.2927146818499295 5613.1953997912796694 7631.4881144731398308 8494.0102964850502758
  256000    52505.208    313.90411    1126.3983    5613.1954    2018.2927    7631.4881    8494.0103   -2070.6496    13172.183   -2484.0444    1890.9572    2886.7087   -275.32886            0    4502.3371   -13585.578   -59.785382      37.4456      37.4456      37.4456            0            0            0   0.91246969 
257000 0.91246968973961695148 311.97089144885399037 582.0743758180479972 1971.2682953528299095 5578.6258852606897563 7549.8941806135098886 7995.608669393510354
257000 0.91246968973961695148 311.97089144885399037 582.0743758180479972 1971.2682953528299095 5578.6258852606897563 7549.8941806135098886 7995.608669393510354
  257000    52505.208    311.97089    582.07438    5578.6259    1971.2683    7549.8942    7995.6087   -2045.8033    13162.541   -2468.3158    1911.2459    2811.2712   -282.93296            0    4439.5841   -13585.054   -59.785382      37.4456      37.4456      37.4456            0            0            0   0.91246969 
258000 0.91246968973961695148 314.40846416807897867 1861.9520998081100061 2081.2967623992299195 5622.2142668738497377 7703.5110292730796573 9129.2721738561504026
258000 0.91246968973961695148 314.40846416807897867 1861.9520998081100061 2081.2967623992299195 5622.2142668738497377 7703.5110292730796573 9129.2721738561504026
  258000    52505.208    314.40846    1861.9521    5622.2143    2081.2968     7703.511    9129.2722   -2019.2087    13168.639   -2436.1405    1981.0749    2822.7901   -286.42779            0    4517.4373   -13585.571   -59.785382      37.4456      37.4456      37.4456            0            0            0   0.91246969 
259000 0.91246968973961695148 311.28962668951800197 2222.2179415112300376 2032.6206859581000117 5566.4435909334797543 7599.0642768915904526 9300.6934413199396658
259000 0.91246968973961695148 311.28962668951800197 2222.2179415112300376 2032.6206859581000117 5566.4435909334797543 7599.0642768915904526 9300.6934413199396658
  259000    52505.208    311.28963    2222.2179    5566.4436    2032.6207    7599.0643    9300.6934    -2056.142      13151.9   -2488.4091    1921.3497    2874.1989    -274.5188            0    4521.0298   -13584.167   -59.785382      37.4456      37.4456      37.4456            0            0            0   0.91246969 
260000 0.91246968973961695148 306.37376747852601966 629.53251689216403975 1999.456351294749993 5478.5387889329704194 7477.9951402277301895 7960.0499696344204494
260000 0.91246968973961695148 306.37376747852601966 629.53251689216403975 1999.456351294749993 5478.5387889329704194 7477.9951402277301895 7960.0499696344204494
  260000    52505.208    306.37377    629.53252    5478.5388    1999.4564    7477.9951      7960.05   -2063.9706    13158.901   -2490.2115    1888.6573    2864.4652   -263.45459            0    4489.6679   -13585.142   -59.785382      37.4456      37.4456      37.4456            0            0            0   0.91246969 
261000 0.91246968973961695148 309.37367809588801038 1274.5146417388900772 2052.3206391411299592 5532.1828290732501046 7584.503468214379609 8560.4434263802195346
261000 0.91246968973961695148 309.37367809588801038 1274.5146417388900772 2052.3206391411299592 5532.1828290732501046 7584.503468214379609 8560.4434263802195346
  261000    52505.208    309.37368    1274.5146    5532.1828    2052.3206    7584.5035    8560.4434   -2034.4145    13177.483   -2444.1372     1858.646    2893.7463   -255.93441            0    4496.4579   -13587.206   -59.785382      37.4456      37.4456      37.4456            0            0            0   0.91246969 
262000 0.91246968973961695148 302.38703724134597906 521.23953602334404422 1983.1287375197500751 5407.2485592727698531 7390.3772967925197008 7789.5084439145002762
262000 0.91246968973961695148 302.38703724134597906 521.23953602334404422 1983.1287375197500751 5407.2485592727698531 7390.3772967925197008 7789.5084439145002762
  262000    52505.208    302.38704    521.23954    5407.2486    1983.1287    7390.3773    7789.5084   -2032.7072    13142.537   -2477.1835    1882.9316    2844.5718   -267.19116            0    4460.3123   -13587.013   -59.785382      37.4456      37.4456      37.4456            0            0            0   0.91246969 
263000 0.91246968973961695148 308.15721052012600012 571.74051999688299475 2170.0375476132699077 5510.4301024800497544 7680.4676500933101124 8118.2691479295299359
263000 0.91246968973961695148 308.15721052012600012 571.74051999688299475 2170.0375476132699077 5510.4301024800497544 7680.4676500933101124 8118.2691479295299359
  263000    52505.208    308.15721    571.74052    5510.4301    2170.0375    7680.4677    8118.2691   -2045.2352    13189.004   -2444.2012    1902.2793    2947.8904     -235.931            0    4614.2387    -13587.97   -59.785382      37.4456      37.4456      37.4456            0            0            0   0.91246969 
264000 0.91246968973961695148 306.01858323675901374 2097.3310129075998702 2071.3061710936599411 5472.1874271249498634 7543.4935982186198089 9149.4925204470000608
264000 0.91246968973961695148 306.01858323675901374 2097.3310129075998702 2071.3061710936599411 5472.1874271249498634 7543.4935982186198089 9149.4925204470000608
  264000    52505.208    306.01858     2097.331    5472.1874    2071.3062    7543.4936    9149.4925   -2060.5978     13182.89     -2466.65    1869.9912     2947.971   -280.00595            0    4537.9562   -13588.942   -59.785382      37.4456      37.4456      37.4456            0            0            0   0.91246969 
265000 0.91246968973961695148 306.36027247254099848 -94.558621560300593956 2037.2177604377600346 5478.2974728622202747 7515.5152332999796272 7443.1084251334796136
265000 0.91246968973961695148 306.36027247254099848 -94.558621560300593956 2037.2177604377600346 5478.2974728622202747 7515.5152332999796272 7443.1084251334796136
  265000    52505.208    306.36027   -94.558622    5478.2975    2037.2178    7515.5152    7443.1084   -2088.2104    13164.909   -2512.6592     1910.327    2882.4653   -242.91523            0     4549.877   -13589.358   -59.785382      37.4456      37.4456      37.4456            0            0            0   0.91246969 
266000 0.91246968973961695148 312.2058413451790102 2182.6752408870102045 1962.6332215973700386 5582.827230992929799 7545.4604525903096146 9216.8104030111098837
266000 0.91246968973961695148 312.2058413451790102 2182.6752408870102045 1962.6332215973700386 5582.827230992929799 7545.4604525903096146 9216.8104030111098837
  266000    52505.208    312.20584    2182.6752    5582.8272    1962.6332    7545.4605    9216.8104   -2039.6756    13173.019   -2455.7157    1882.1104    2798.6054    -262.3669            0    4418.3489   -13589.059   -59.785382      37.4456      37.4456      37.4456            0            0            0   0.91246969 
267000 0.91246968973961695148 312.04072217318099547 1364.4957136975099274 2003.4036875881499782 5579.8745898577899425 7583.278277445940148 8628.1198556694307626
267000 0.91246968973961695148 312.04072217318099547 1364.4957136975099274 2003.4036875881499782 5579.8745898577899425 7583.278277445940148 8628.1198556694307626
  267000    52505.208    312.04072    1364.4957    5579.8746    2003.4037    7583.2783    8628.1199   -2055.1156    13169.492   -2474.7562    1912.2475    2843.3607   -277.44837            0    4478.1598   -13589.132   -59.785382      37.4456      37.4456      37.4456            0            0            0   0.91246969 
268000 0.91246968973961695148 307.86862590714599719 1273.7820882414700918 2115.1257082868200996 5505.2696672080701319 7620.3953754948997812 8595.7743921021101414
268000 0.91246968973961695148 307.86862590714599719 1273.7820882414700918 2115.1257082868200996 5505.2696672080701319 7620.3953754948997812 8595.7743921021101414
  268000    52505.208    307.86863    1273.7821    5505.2697    2115.1257    7620.3954    8595.7744   -2079.9627    13231.623    -2436.878    1935.8483    2872.8851   -256.72976            0    4552.0037   -13588.538   -59.785382      37.4456      37.4456      37.4456            0            0            0   0.91246969 
269000 0.91246968973961695148 311.96315884082702041 1093.5763635753899052 1949.2269249530800153 5578.4876116957902923 7527.7145366488703075 8365.1037949337205646
269000 0.91246968973961695148 311.96315884082702041 1093.5763635753899052 1949.2269249530800153 5578.4876116957902923 7527.7145366488703075 8365.1037949337205646
  269000    52505.208    311.96316    1093.5764    5578.4876    1949.2269    7527.7145    8365.1038   -2046.9086    13174.553   -2460.4319    1870.7305    2807.7135   -268.78518            0    4409.6588   -13588.077   -59.785382      37.4456      37.4456      37.4456            0            0            0   0.91246969 
270000 0.91246968973961695148 316.758931337066997 2188.2053040731398141 2073.4214184321599532 5664.2450375347798399 7737.6664559669397931 9413.2509671042498667
270000 0.91246968973961695148 316.758931337066997 2188.2053040731398141 2073.4214184321599532 5664.2450375347798399 7737.6664559669397931 9413.2509671042498667
  270000    52505.208    316.75893    2188.2053     5664.245    2073.4214    7737.6665     9413.251   -2068.2391    13199.894   -2458.8075    1893.2399    2915.5009   -276.51184            0    4532.2289   -13590.462   -59.785382      37.4456      37.4456      37.4456            0            0            0   0.91246969 
271000 0.91246968973961695148 312.56346539790098404 1545.4050015250900287 1996.0735995478601126 5589.2222212064198175 7585.2958207542696982 8768.6658999555002083
271000 0.91246968973961695148 312.56346539790098404 1545.4050015250900287 1996.0735995478601126 5589.2222212064198175 7585.2958207542696982 8768.6658999555002083
  271000    52505.208    312.56347     1545.405    5589.2222    1996.0736    7585.2958    8768.6659   -2067.5376    13196.874   -2459.4871    1908.2707    2857.7344   -310.44438            0    4455.5607   -13588.824   -59.785382      37.4456      37.4456      37.4456            0            0            0   0.91246969 
272000 0.91246968973961695148 305.07278142312799218 1252.4656950415499068 1961.820008426539971 5455.2747130722300426 7417.094721498780018 8376.1510383060103777
272000 0.91246968973961695148 305.07278142312799218 1252.4656950415499068 1961.820008426539971 5455.2747130722300426 7417.094721498780018 8376.1510383060103777
  272000    52505.208    305.07278    1252.4657    5455.2747      1961.82    7417.0947     8376.151   -2040.0464     13160.52   -2467.7526    1878.6512    2843.1411   -292.21969            0    4429.5726   -13588.226   -59.785382      37.4456      37.4456      37.4456            0            0            0   0.91246969 
273000 0.91246968973961695148 310.66531084906699789 1335.7168264710899166 1974.5953199002399288 5555.2796503108802426 7529.8749702111099396 8552.6795587634005642
273000 0.91246968973961695148 310.66531084906699789 1335.7168264710899166 1974.5953199002399288 5555.2796503108802426 7529.8749702111099396 8552.6795587634005642
  273000    52505.208    310.66531    1335.7168    5555.2797    1974.5953     7529.875    8552.6796   -2026.9902    13155.425   -2458.7307     1885.246    2870.2565   -322.17645            0    4433.3261   -13587.165   -59.785382      37.4456      37.4456      37.4456            0            0            0   0.91246969 
274000 0.91246968973961695148 312.74309232720997898 1171.9294723569200869 1969.7290065096899525 5592.434288309479598 7562.1632948191700052 8459.5502394405793893
274000 0.91246968973961695148 312.74309232720997898 1171.9294723569200869 1969.7290065096899525 5592.434288309479598 7562.1632948191700052 8459.5502394405793893
  274000    52505.208    312.74309    1171.9295    5592.4343     1969.729    7562.1633    8459.5502   -2071.9885    13174.435   -2487.9036    1915.5203    2814.1849   -272.07257            0    4457.6326    -13590.35   -59.785382      37.4456      37.4456      37.4456            0            0            0   0.91246969 
275000 0.91246968973961695148 307.66340138260898129 1901.0929297684699577 1971.6115364253998905 5501.5998669919199529 7473.2114034173200707 8928.9440357362800569
275000 0.91246968973961695148 307.66340138260898129 1901.0929297684699577 1971.6115364253998905 5501.5998669919199529 7473.2114034173200707 8928.9440357362800569
  275000    52505.208     307.6634    1901.0929    5501.5999    1971.6115    7473.2114     8928.944   -2080.6903    13236.412   -2434.2986    1907.3988    2832.3456   -333.83436            0    4405.9101    -13590.02   -59.785382      37.4456      37.4456      37.4456            0            0            0   0.91246969 
276000 0.91246968973961695148 309.39117144002000259 1190.2311085040000762 1987.0461578913700578 5532.4956429448902782 7519.5418008362603359 8430.9429414745791291
276000 0.91246968973961695148 309.39117144002000259 1190.2311085040000762 1987.0461578913700578 5532.4956429448902782 7519.5418008362603359 8430.9429414745791291
  276000    52505.208    309.39117    1190.2311    5532.4956    1987.0462    7519.5418    8430.9429   -2051.2985    13150.721   -2489.0883    1902.0483    2860.3737   -286.28744            0    4476.1345   -13588.511   -59.785382      37.4456      37.4456      37.4456            0            0            0   0.91246969 
277000 0.91246968973961695148 306.81815589670100053 -684.33915577838399713 1954.8384622285200294 5486.4852890735000983 7441.3237513020203551 6917.301582242909717
277000 0.91246968973961695148 306.81815589670100053 -684.33915577838399713 1954.8384622285200294 5486.4852890735000983 7441.3237513020203551 6917.301582242909717
  277000    52505.208    306.81816   -684.33916    5486.4853    1954.8385    7441.3238    6917.3016    -2086.261    13171.695   -2504.1873    1880.5888    2844.1068   -265.66982            0    4459.0258   -13589.622   -59.785382      37.4456      37.4456      37.4456            0            0            0   0.91246969 
278000 0.91246968973961695148 309.08662875380798596 1221.9588176826300696 1953.6338814071300476 5527.0498473305096923 7480.6837287376301902 8416.3798740424008429
278000 0.91246968973961695148 309.08662875380798596 1221.9588176826300696 1953.6338814071300476 5527.0498473305096923 7480.6837287376301902 8416.3798740424008429
  278000    52505.208    309.08663    1221.9588    5527.0498    1953.6339    7480.6837    8416.3799   -2060.0914    13198.774   -2450.1375    1923.1147    2787.6943    -307.0377            0    4403.7714    -13588.82   -59.785382      37.4456      37.4456      37.4456            0            0            0   0.91246969 
279000 0.91246968973961695148 309.03922297667901375 1229.8188486912799817 2092.6469196314401415 5526.2021429367596284 7618.8490625681997699 8560.5639055658393772
279000 0.91246968973961695148 309.03922297667901375 1229.8188486912799817 2092.6469196314401415 5526.2021429367596284 7618.8490625681997699 8560.5639055658393772
  279000    52505.208    309.03922    1229.8188    5526.2021    2092.6469    7618.8491    8560.5639   -2052.2926    13206.391    -2434.488    1903.6205    2910.0352   -286.52079            0    4527.1349   -13588.587   -59.785382      37.4456      37.4456      37.4456            0            0            0   0.91246969 
280000 0.91246968973961695148 306.07375268213797881 1129.5044543137400979 2022.0362174122699344 5473.1739604987496932 7495.2101779110298594 8360.1108183517699217
280000 0.91246968973961695148 306.07375268213797881 1129.5044543137400979 2022.0362174122699344 5473.1739604987496932 7495.2101779110298594 8360.1108183517699217
  280000    52505.208    306.07375    1129.5045     5473.174    2022.0362    7495.2102    8360.1108   -1993.8866    13118.714   -2463.4734    1908.8901    2838.4015   -261.78198            0    4485.5096   -13588.301   -59.785382      37.4456      37.4456      37.4456            0            0            0   0.91246969 
  280601    52505.208     309.4923    60.974783     5534.304    1973.2286    7507.5325     7554.223   -2074.1178    13190.092   -2472.2908    1908.5388    2815.8734   -278.89279            0    4445.5194   -13588.265   -59.785382      37.4456      37.4456      37.4456            0            0            0   0.91246969 
Loop time of 165.789 on 48 procs for 30000 steps with 6000 atoms

Performance: 15.634 ns/day, 1.535 hours/ns, 180.952 timesteps/s
72.2% CPU use with 48 MPI tasks x 1 OpenMP threads

MPI task timing breakdown:
Section |  min time  |  avg time  |  max time  |%varavg| %total
---------------------------------------------------------------
Pair    | 68.582     | 74.739     | 82.147     |  37.4 | 45.08
Bond    | 2.3255     | 2.8077     | 3.3959     |  12.9 |  1.69
Kspace  | 20.266     | 28.911     | 35.661     |  60.1 | 17.44
Neigh   | 15.364     | 15.902     | 16.367     |   8.1 |  9.59
Comm    | 29.086     | 33.561     | 38.206     |  34.1 | 20.24
Output  | 0.16798    | 0.16841    | 0.16868    |   0.0 |  0.10
Modify  | 2.6241     | 5.7419     | 7.8156     |  51.7 |  3.46
Other   |            | 3.958      |            |       |  2.39

Nlocal:    125 ave 143 max 113 min
Histogram: 2 6 7 7 9 7 7 2 0 1
Nghost:    7388.15 ave 7432 max 7339 min
Histogram: 1 2 7 4 8 6 13 1 4 2
Neighs:    100990 ave 115488 max 88297 min
Histogram: 4 0 6 9 7 11 3 6 1 1

Total # of neighbors = 4847514
Ave neighs/atom = 807.919
Ave special neighs/atom = 10.5333
Neighbor list builds = 3432
Dangerous builds = 0

write_data      restart.${NAME}.final.data
write_data      restart.NoctanolN.final.data
Ewald initialization ...
  using 12-bit tables for long-range coulomb (src/kspace.cpp:332)
  G vector (1/distance) = 0.158542
  estimated absolute RMS force accuracy = 0.0334255
  estimated relative force accuracy = 0.00010066
  KSpace vectors: actual max1d max3d = 257 5 665
                  kxmax kymax kzmax  = 5 5 5
Total wall time: 0:24:59
