OctaneO.data - created by mBuild; units = real

5000 atoms
4800 bonds
8800 angles
12000 dihedrals
0 impropers

5 atom types
6 bond types
10 angle types
15 dihedral types

0.000000 40.000000 xlo xhi
0.000000 40.000000 ylo yhi
0.000000 40.000000 zlo zhi

Masses

1	12.010780	# opls_136
2	1.007947	# opls_140
3	15.999430	# opls_154
4	1.007947	# opls_155
5	12.010780	# opls_157

Pair Coeffs # lj
#	epsilon (kcal/mol)		sigma (Angstrom)
1	0.06600		3.50000		# opls_136
2	0.03000		2.50000		# opls_140
3	0.17000		3.12000		# opls_154
4	0.00000		10.00000		# opls_155
5	0.06600		3.50000		# opls_157

Bond Coeffs # harmonic
#	k(kcal/mol/angstrom^2)		req(angstrom)
1	320.0		1.41		# opls_154	opls_157
2	268.0		1.529		# opls_136	opls_157
3	268.0		1.529		# opls_136	opls_136
4	553.0		0.945		# opls_154	opls_155
5	340.0		1.09		# opls_140	opls_157
6	340.0		1.09		# opls_136	opls_140

Angle Coeffs # harmonic
#	k(kcal/mol/rad^2)		theteq(deg)
1	50.0		109.50000	# opls_136	opls_157	opls_154
2	35.0		109.50000	# opls_140	opls_157	opls_154
3	55.0		108.50000	# opls_155	opls_154	opls_157
4	58.35		112.70000	# opls_136	opls_136	opls_157
5	37.5		110.70000	# opls_140	opls_136	opls_157
6	37.5		110.70000	# opls_136	opls_157	opls_140
7	58.35		112.70000	# opls_136	opls_136	opls_136
8	37.5		110.70000	# opls_136	opls_136	opls_140
9	33.0		107.80000	# opls_140	opls_157	opls_140
10	33.0		107.80000	# opls_140	opls_136	opls_140

Dihedral Coeffs # opls
#	f1(kcal/mol)	f2(kcal/mol)	f3(kcal/mol)	f4(kcal/mol)
1	1.71100	-0.50000		0.66300		-0.00000	# opls_154	opls_157	opls_136	opls_136
2	0.00000	-0.00000		0.46800		-0.00000	# opls_154	opls_157	opls_136	opls_140
3	1.30000	-0.05000		0.20000		-0.00000	# opls_157	opls_136	opls_136	opls_136
4	-0.00000	-0.00000		0.30000		-0.00000	# opls_157	opls_136	opls_136	opls_140
5	-0.35600	-0.17400		0.49200		-0.00000	# opls_136	opls_157	opls_154	opls_155
6	1.30000	-0.05000		0.20000		-0.00000	# opls_136	opls_136	opls_136	opls_136
7	-0.00000	-0.00000		0.30000		-0.00000	# opls_136	opls_136	opls_136	opls_140
8	-0.00000	-0.00000		0.30000		-0.00000	# opls_136	opls_136	opls_157	opls_140
9	1.30000	-0.05000		0.20000		-0.00000	# opls_136	opls_136	opls_136	opls_157
10	1.71100	-0.50000		0.66300		-0.00000	# opls_136	opls_136	opls_157	opls_154
11	0.00000	-0.00000		0.45000		-0.00000	# opls_155	opls_154	opls_157	opls_140
12	-0.00000	-0.00000		0.30000		-0.00000	# opls_140	opls_157	opls_136	opls_140
13	-0.00000	-0.00000		0.30000		-0.00000	# opls_140	opls_136	opls_136	opls_140
14	-0.00000	-0.00000		0.30000		-0.00000	# opls_140	opls_136	opls_157	opls_140
15	0.00000	-0.00000		0.45000		-0.00000	# opls_140	opls_157	opls_154	opls_155

Atoms # full

1	1	3	-0.683000	2.537384	28.956214	23.668835
2	1	5	0.145000	3.550205	29.060030	24.634079
3	1	1	-0.120000	4.917653	29.238238	23.967930
4	1	1	-0.120000	5.351431	27.981571	23.201367
5	1	1	-0.120000	6.750271	28.160692	22.599435
6	1	1	-0.120000	7.182998	26.907846	21.828589
7	1	1	-0.120000	8.581966	27.087210	21.227543
8	1	5	0.145000	9.015898	25.837862	20.456538
9	1	3	-0.683000	10.308033	26.010673	19.941765
10	1	4	0.418000	2.427299	27.990205	23.468902
11	1	2	0.060000	3.557316	28.173875	25.310754
12	1	2	0.060000	3.343006	29.952874	25.261135
13	1	2	0.060000	5.666669	29.462091	24.758863
14	1	2	0.060000	4.876664	30.107187	23.275016
15	1	2	0.060000	4.626848	27.777935	22.382947
16	1	2	0.060000	5.358107	27.111180	23.894049
17	1	2	0.060000	6.744543	29.033464	21.909596
18	1	2	0.060000	7.479418	28.359993	23.415659
19	1	2	0.060000	7.188081	26.035058	22.518389
20	1	2	0.060000	6.454724	26.708599	21.011558
21	1	2	0.060000	9.314421	27.283615	22.041129
22	1	2	0.060000	8.579886	27.958885	20.536818
23	1	2	0.060000	8.298037	25.622233	19.632125
24	1	2	0.060000	9.024954	24.963553	21.141923
25	1	4	0.418000	10.221656	26.604268	19.150528
26	2	3	-0.683000	18.250528	19.856242	38.002723
27	2	5	0.145000	18.523148	21.034552	37.291706
28	2	1	-0.120000	17.825093	21.018967	35.928656
29	2	1	-0.120000	18.413173	19.953195	34.994157
30	2	1	-0.120000	17.743514	20.001356	33.615609
31	2	1	-0.120000	18.326294	18.933460	32.682311
32	2	1	-0.120000	17.656878	18.982506	31.303901
33	2	5	0.145000	18.236466	17.916484	30.370471
34	2	3	-0.683000	17.633382	17.998357	29.107913
35	2	4	0.418000	18.971529	19.211444	37.779879
36	2	2	0.060000	19.620512	21.187999	37.167389
37	2	2	0.060000	18.133929	21.893109	37.878807
38	2	2	0.060000	17.943871	22.021478	35.462208
39	2	2	0.060000	16.738553	20.833033	36.076101
40	2	2	0.060000	18.259456	18.945376	35.437971
41	2	2	0.060000	19.505789	20.126936	34.878240
42	2	2	0.060000	16.650257	19.831366	33.731940
43	2	2	0.060000	17.899049	21.006883	33.165806
44	2	2	0.060000	19.419639	19.103198	32.566569
45	2	2	0.060000	18.170163	17.927582	33.131146
46	2	2	0.060000	17.812975	19.985621	30.849608
47	2	2	0.060000	16.563545	18.812488	31.416321
48	2	2	0.060000	18.088680	16.900436	30.803237
49	2	2	0.060000	19.328190	18.083195	30.249650
50	2	4	0.418000	16.732687	17.589914	29.196208
51	3	3	-0.683000	37.181932	5.139847	28.587025
52	3	5	0.145000	36.414178	6.288697	28.344171
53	3	1	-0.120000	34.946189	5.920205	28.110402
54	3	1	-0.120000	34.751029	5.138498	26.804323
55	3	1	-0.120000	33.267244	4.838894	26.559826
56	3	1	-0.120000	33.071018	4.053157	25.257830
57	3	1	-0.120000	31.587231	3.754466	25.013498
58	3	5	0.145000	31.388812	2.969135	23.714460
59	3	3	-0.683000	30.024833	2.733347	23.494389
60	3	4	0.418000	37.527899	4.833058	27.708701
61	3	2	0.060000	36.814400	6.868146	27.479722
62	3	2	0.060000	36.476395	6.944179	29.238471
63	3	2	0.060000	34.351293	6.858842	28.068338
64	3	2	0.060000	34.579139	5.316718	28.969447
65	3	2	0.060000	35.311326	4.179649	26.858858
66	3	2	0.060000	35.150403	5.734965	25.954522
67	3	2	0.060000	32.866890	4.245610	27.411513
68	3	2	0.060000	32.703514	5.796080	26.499823
69	3	2	0.060000	33.471970	4.646278	24.406328
70	3	2	0.060000	33.633747	3.095358	25.317638
71	3	2	0.060000	31.020716	4.709448	24.949798
72	3	2	0.060000	31.183616	3.160922	25.863041
73	3	2	0.060000	31.945125	2.004617	23.755694
74	3	2	0.060000	31.785574	3.558572	22.860414
75	3	4	0.418000	29.760623	1.999328	24.108623
76	4	3	-0.683000	11.192929	29.187561	17.868467
77	4	5	0.145000	10.622653	30.249489	18.586364
78	4	1	-0.120000	10.215467	31.384896	17.642712
79	4	1	-0.120000	11.433399	32.065253	17.003377
80	4	1	-0.120000	11.003764	33.239271	16.115540
81	4	1	-0.120000	12.219260	33.916849	15.471692
82	4	1	-0.120000	11.789181	35.091042	14.584651
83	4	5	0.145000	13.001088	35.768663	13.939882
84	4	3	-0.683000	12.588966	36.856884	13.158604
85	4	4	0.418000	12.171822	29.349861	17.842170
86	4	2	0.060000	11.316976	30.625316	19.373687
87	4	2	0.060000	9.712995	29.873145	19.100356
88	4	2	0.060000	9.639836	32.136539	18.226143
89	4	2	0.060000	9.549884	30.980079	16.848984
90	4	2	0.060000	11.988894	31.326426	16.385429
91	4	2	0.060000	12.109781	32.438186	17.803916
92	4	2	0.060000	10.324309	32.866916	15.317208
93	4	2	0.060000	10.451541	33.983397	16.731108
94	4	2	0.060000	12.898914	34.288595	16.270117
95	4	2	0.060000	12.771356	33.173411	14.855161
96	4	2	0.060000	11.239308	35.838781	15.197443
97	4	2	0.060000	11.109938	34.722326	13.784901
98	4	2	0.060000	13.567231	35.038951	13.316599
99	4	2	0.060000	13.681979	36.143969	14.733471
100	4	4	0.418000	12.214610	36.479128	12.320134
101	5	3	-0.683000	13.130815	16.155452	35.003565
102	5	5	0.145000	12.804012	14.805282	35.199830
103	5	1	-0.120000	12.344489	14.162550	33.887899
104	5	1	-0.120000	11.005235	14.735834	33.405469
105	5	1	-0.120000	10.534427	14.031251	32.127556
106	5	1	-0.120000	9.198951	14.606605	31.641190
107	5	1	-0.120000	8.728328	13.901312	30.363843
108	5	5	0.145000	7.395458	14.474717	29.875707
109	5	3	-0.683000	6.968262	13.796429	28.725969
110	5	4	0.418000	12.306863	16.680251	35.179505
111	5	2	0.060000	12.023507	14.687721	35.987358
112	5	2	0.060000	13.713285	14.275189	35.554124
113	5	2	0.060000	12.236874	13.067976	34.052325
114	5	2	0.060000	13.124026	14.320162	33.110492
115	5	2	0.060000	11.119513	15.822647	33.200342
116	5	2	0.060000	10.239496	14.603600	34.201454
117	5	2	0.060000	11.301961	14.160280	31.332644
118	5	2	0.060000	10.414192	12.943931	32.329735
119	5	2	0.060000	8.431685	14.478070	32.436421
120	5	2	0.060000	9.318829	15.693765	31.437887
121	5	2	0.060000	8.603968	12.814175	30.562983
122	5	2	0.060000	9.493249	14.028614	29.566590
123	5	2	0.060000	7.495854	15.564338	29.665646
124	5	2	0.060000	6.624961	14.346502	30.665736
125	5	4	0.418000	7.518002	14.138775	27.973335
126	6	3	-0.683000	28.743948	22.434811	21.658178
127	6	5	0.145000	30.083397	22.416947	22.075118
128	6	1	-0.120000	31.015364	22.798907	20.921440
129	6	1	-0.120000	31.024083	21.736513	19.814084
130	6	1	-0.120000	32.012781	22.109236	18.702908
131	6	1	-0.120000	32.018766	21.051326	17.593011
132	6	1	-0.120000	33.007981	21.424129	16.482601
133	6	5	0.145000	33.015080	20.369752	15.372712
134	6	3	-0.683000	33.946959	20.713530	14.383831
135	6	4	0.418000	28.527316	21.518480	21.344057
136	6	2	0.060000	30.364670	21.421827	22.492048
137	6	2	0.060000	30.204294	23.162421	22.889337
138	6	2	0.060000	32.044713	22.915461	21.325873
139	6	2	0.060000	30.696026	23.778154	20.501941
140	6	2	0.060000	30.004953	21.646401	19.378708
141	6	2	0.060000	31.312573	20.753824	20.248285
142	6	2	0.060000	31.726477	23.093783	18.271239
143	6	2	0.060000	33.034886	22.195783	19.133500
144	6	2	0.060000	32.304475	20.066731	18.024928
145	6	2	0.060000	30.997085	20.965036	17.161337
146	6	2	0.060000	34.031783	21.508531	16.908856
147	6	2	0.060000	32.724514	22.407987	16.048329
148	6	2	0.060000	31.998932	20.269410	14.926781
149	6	2	0.060000	33.302329	19.384732	15.798709
150	6	4	0.418000	33.534918	21.438479	13.844810
151	7	3	-0.683000	10.838069	9.495561	9.057498
152	7	5	0.145000	12.132168	9.431937	9.595590
153	7	1	-0.120000	13.090869	8.740911	8.621525
154	7	1	-0.120000	12.757739	7.253255	8.445736
155	7	1	-0.120000	13.769769	6.569435	7.518728
156	7	1	-0.120000	13.435193	5.084042	7.337759
157	7	1	-0.120000	14.447769	4.400651	6.411366
158	7	5	0.145000	14.115260	2.917559	6.228358
159	7	3	-0.683000	15.069159	2.305332	5.403905
160	7	4	0.418000	10.359572	8.680070	9.359624
161	7	2	0.060000	12.135571	8.912629	10.582259
162	7	2	0.060000	12.489030	10.469495	9.767116
163	7	2	0.060000	14.125332	8.840745	9.017289
164	7	2	0.060000	13.046398	9.256146	7.636926
165	7	2	0.060000	11.739410	7.150159	8.011369
166	7	2	0.060000	12.772214	6.752392	9.438893
167	7	2	0.060000	13.758009	7.072759	6.526676
168	7	2	0.060000	14.789764	6.666145	7.952150
169	7	2	0.060000	13.446379	4.580987	8.329938
170	7	2	0.060000	12.415637	4.986718	6.903417
171	7	2	0.060000	15.468624	4.492599	6.843093
172	7	2	0.060000	14.438436	4.901116	5.418204
173	7	2	0.060000	13.096504	2.799516	5.792834
174	7	2	0.060000	14.127584	2.410003	7.216531
175	7	4	0.418000	14.859472	2.581142	4.473404
176	8	3	-0.683000	24.259739	24.810833	24.583540
177	8	5	0.145000	22.974071	24.471237	25.030767
178	8	1	-0.120000	22.801799	24.831237	26.509330
179	8	1	-0.120000	23.682489	23.963416	27.418322
180	8	1	-0.120000	23.443750	24.297130	28.895751
181	8	1	-0.120000	24.326937	23.434565	29.805170
182	8	1	-0.120000	24.087337	23.768143	31.282281
183	8	5	0.145000	24.968780	22.908786	32.192324
184	8	3	-0.683000	24.712463	23.207369	33.537545
185	8	4	0.418000	24.832208	24.010970	24.716825
186	8	2	0.060000	22.759614	23.389849	24.863979
187	8	2	0.060000	22.235095	25.049967	24.437231
188	8	2	0.060000	21.734297	24.684146	26.784128
189	8	2	0.060000	23.051533	25.905017	26.655992
190	8	2	0.060000	24.753037	24.138744	27.174421
191	8	2	0.060000	23.449524	22.890121	27.241691
192	8	2	0.060000	23.673105	25.371427	29.071599
193	8	2	0.060000	22.374447	24.118477	29.145293
194	8	2	0.060000	24.097920	22.360301	29.628772
195	8	2	0.060000	25.396457	23.613546	29.556751
196	8	2	0.060000	23.019682	23.587721	31.536346
197	8	2	0.060000	24.316105	24.841606	31.461905
198	8	2	0.060000	26.045466	23.075177	31.958787
199	8	2	0.060000	24.742012	21.834686	32.021628
200	8	4	0.418000	25.165042	24.070302	33.728311
201	9	3	-0.683000	22.780437	15.019548	18.677258
202	9	5	0.145000	23.564923	16.054169	19.208693
203	9	1	-0.120000	23.791469	15.846767	20.709055
204	9	1	-0.120000	22.493422	16.001489	21.512877
205	9	1	-0.120000	22.757376	15.854930	23.016209
206	9	1	-0.120000	21.460441	16.003941	23.820470
207	9	1	-0.120000	21.725028	15.858011	25.323546
208	9	5	0.145000	20.431346	16.005486	26.128689
209	9	3	-0.683000	20.699591	15.899563	27.500291
210	9	4	0.418000	21.834822	15.315823	18.734693
211	9	2	0.060000	23.104317	17.051292	19.016868
212	9	2	0.060000	24.550442	16.041543	18.696938
213	9	2	0.060000	24.531606	16.599209	21.059395
214	9	2	0.060000	24.221110	14.834931	20.877813
215	9	2	0.060000	21.765091	15.224142	21.194185
216	9	2	0.060000	22.053248	17.003349	21.312990
217	9	2	0.060000	23.201095	14.854438	23.215635
218	9	2	0.060000	23.482249	16.634112	23.340296
219	9	2	0.060000	21.016520	17.004213	23.620472
220	9	2	0.060000	20.735495	15.224349	23.497499
221	9	2	0.060000	22.447145	16.637556	25.651942
222	9	2	0.060000	22.168394	14.858482	25.526746
223	9	2	0.060000	19.691900	15.231471	25.819499
224	9	2	0.060000	19.985244	17.004195	25.934204
225	9	4	0.418000	20.837777	14.934616	27.689120
226	10	3	-0.683000	22.595824	16.836038	36.803078
227	10	5	0.145000	22.909301	18.202886	36.844807
228	10	1	-0.120000	23.909931	18.563417	35.742907
229	10	1	-0.120000	25.284637	17.925420	35.984025
230	10	1	-0.120000	26.286036	18.353764	34.904729
231	10	1	-0.120000	27.658768	17.712849	35.141196
232	10	1	-0.120000	28.659817	18.142003	34.062185
233	10	5	0.145000	30.031042	17.502574	34.295613
234	10	3	-0.683000	30.938455	17.931395	33.317256
235	10	4	0.418000	23.235902	16.374721	37.405367
236	10	2	0.060000	23.305569	18.497302	37.844557
237	10	2	0.060000	21.975080	18.779368	36.676882
238	10	2	0.060000	24.018775	19.669829	35.716185
239	10	2	0.060000	23.507543	18.231997	34.760499
240	10	2	0.060000	25.186936	16.817916	35.970301
241	10	2	0.060000	25.665060	18.235696	36.982244
242	10	2	0.060000	25.903770	18.046815	33.906082
243	10	2	0.060000	26.390399	19.461250	34.918206
244	10	2	0.060000	28.040624	18.019378	36.140114
245	10	2	0.060000	27.555201	16.605290	35.126837
246	10	2	0.060000	28.769163	19.248744	34.074712
247	10	2	0.060000	28.281010	17.836297	33.062200
248	10	2	0.060000	29.947787	16.391535	34.283825
249	10	2	0.060000	30.417942	17.807753	35.291316
250	10	4	0.418000	30.721779	17.428700	32.488870
251	11	3	-0.683000	6.355039	28.401355	27.545835
252	11	5	0.145000	5.679946	27.365491	28.208796
253	11	1	-0.120000	6.560932	26.116174	28.300974
254	11	1	-0.120000	6.811967	25.487311	26.923836
255	11	1	-0.120000	7.640149	24.202948	27.049082
256	11	1	-0.120000	7.896428	23.576210	25.673364
257	11	1	-0.120000	8.723927	22.291709	25.799223
258	11	5	0.145000	8.981944	21.664532	24.426747
259	11	3	-0.683000	9.712699	20.476707	24.566518
260	11	4	0.418000	6.129218	28.322715	26.582463
261	11	2	0.060000	4.713115	27.126160	27.707630
262	11	2	0.060000	5.442575	27.707842	29.238238
263	11	2	0.060000	6.051404	25.375094	28.955107
264	11	2	0.060000	7.530327	26.386153	28.774542
265	11	2	0.060000	7.358167	26.210721	26.279910
266	11	2	0.060000	5.836981	25.250526	26.443453
267	11	2	0.060000	8.613674	24.439098	27.532945
268	11	2	0.060000	7.094876	23.474343	27.688935
269	11	2	0.060000	6.922833	23.340689	25.189369
270	11	2	0.060000	8.442583	24.304032	25.033356
271	11	2	0.060000	8.180371	21.559465	26.435898
272	11	2	0.060000	9.698365	22.524136	26.282310
273	11	2	0.060000	9.529740	22.379327	23.770648
274	11	2	0.060000	8.012325	21.425137	23.940148
275	11	4	0.418000	10.652893	20.740904	24.745704
276	12	3	-0.683000	11.523055	9.308856	12.657647
277	12	5	0.145000	12.636568	9.066165	13.475858
278	12	1	-0.120000	13.738011	8.345830	12.692680
279	12	1	-0.120000	13.326785	6.919764	12.302522
280	12	1	-0.120000	14.468937	6.197398	11.578068
281	12	1	-0.120000	14.057775	4.774102	11.182776
282	12	1	-0.120000	15.200345	4.052059	10.459086
283	12	5	0.145000	14.791880	2.630964	10.062526
284	12	3	-0.683000	15.859310	1.978615	9.430466
285	12	4	0.418000	10.914949	8.531016	12.759811
286	12	2	0.060000	12.353826	8.480581	14.381594
287	12	2	0.060000	13.031760	10.043689	13.824527
288	12	2	0.060000	14.649866	8.303688	13.327859
289	12	2	0.060000	13.980220	8.931711	11.778918
290	12	2	0.060000	12.439609	6.959664	11.633474
291	12	2	0.060000	13.054799	6.350797	13.218892
292	12	2	0.060000	14.743496	6.768430	10.663638
293	12	2	0.060000	15.357385	6.151053	12.245983
294	12	2	0.060000	13.782656	4.203390	12.097219
295	12	2	0.060000	13.169921	4.819857	10.514015
296	12	2	0.060000	16.089612	4.001019	11.125109
297	12	2	0.060000	15.477263	4.620070	9.543880
298	12	2	0.060000	13.903245	2.656173	9.390832
299	12	2	0.060000	14.518433	2.055951	10.972931
300	12	4	0.418000	15.907507	2.341291	8.507419
301	13	3	-0.683000	4.260441	2.233397	32.893303
302	13	5	0.145000	4.085293	3.604842	32.655096
303	13	1	-0.120000	3.230113	3.833061	31.405292
304	13	1	-0.120000	3.952141	3.388792	30.126114
305	13	1	-0.120000	3.103757	3.687720	28.884324
306	13	1	-0.120000	3.821527	3.239495	27.605660
307	13	1	-0.120000	2.973145	3.539237	26.364313
308	13	5	0.145000	3.687341	3.091716	25.086321
309	13	3	-0.683000	2.909441	3.402202	23.962516
310	13	4	0.418000	5.093346	1.963412	32.425710
311	13	2	0.060000	5.065371	4.127780	32.559211
312	13	2	0.060000	3.559860	4.045373	33.528682
313	13	2	0.060000	2.993767	4.917465	31.335158
314	13	2	0.060000	2.272776	3.276881	31.510411
315	13	2	0.060000	4.153553	2.296365	30.174421
316	13	2	0.060000	4.923230	3.925395	30.045637
317	13	2	0.060000	2.131066	3.154102	28.966582
318	13	2	0.060000	2.903847	4.780713	28.829547
319	13	2	0.060000	4.794456	3.772717	27.523854
320	13	2	0.060000	4.020830	2.146331	27.659427
321	13	2	0.060000	2.773795	4.631787	26.304459
322	13	2	0.060000	1.999824	3.006894	26.442928
323	13	2	0.060000	3.895092	1.997592	25.121141
324	13	2	0.060000	4.658847	3.623463	24.998736
325	13	4	0.418000	2.182358	2.727067	23.924878
326	14	3	-0.683000	32.814519	27.797522	7.641548
327	14	5	0.145000	31.416967	27.679496	7.606938
328	14	1	-0.120000	30.751999	29.035361	7.861647
329	14	1	-0.120000	30.983274	29.528184	9.296441
330	14	1	-0.120000	30.253830	30.853548	9.546401
331	14	1	-0.120000	30.488306	31.350082	10.978029
332	14	1	-0.120000	29.758192	32.674910	11.227634
333	14	5	0.145000	29.991568	33.173232	12.656208
334	14	3	-0.683000	29.291576	34.368007	12.872977
335	14	4	0.418000	33.095968	27.620110	8.576736
336	14	2	0.060000	31.056000	26.922650	8.341849
337	14	2	0.060000	31.122653	27.325299	6.596382
338	14	2	0.060000	29.659659	28.929657	7.681846
339	14	2	0.060000	31.150746	29.780114	7.138304
340	14	2	0.060000	32.072168	29.674710	9.467140
341	14	2	0.060000	30.611529	28.763192	10.013397
342	14	2	0.060000	30.622892	31.617576	8.826891
343	14	2	0.060000	29.163063	30.710168	9.381272
344	14	2	0.060000	30.119771	30.585702	11.697414
345	14	2	0.060000	31.578889	31.494602	11.143443
346	14	2	0.060000	28.666700	32.534679	11.066485
347	14	2	0.060000	30.125042	33.441442	10.510157
348	14	2	0.060000	31.079835	33.324958	12.840962
349	14	2	0.060000	29.622795	32.414125	13.378714
350	14	4	0.418000	29.807176	35.085599	12.420106
351	15	3	-0.683000	33.517911	25.815739	32.198584
352	15	5	0.145000	32.278598	26.136744	31.624703
353	15	1	-0.120000	32.132029	25.480258	30.248850
354	15	1	-0.120000	33.108093	26.071907	29.223059
355	15	1	-0.120000	32.897258	25.445726	27.839368
356	15	1	-0.120000	33.875422	26.031995	26.814397
357	15	1	-0.120000	33.663729	25.406072	25.430943
358	15	5	0.145000	34.639933	25.989198	24.405953
359	15	3	-0.683000	34.409563	25.426791	23.142982
360	15	4	0.418000	34.154092	26.528227	31.928583
361	15	2	0.060000	32.141451	27.240605	31.547945
362	15	2	0.060000	31.477008	25.749624	32.288698
363	15	2	0.060000	31.089299	25.636076	29.895095
364	15	2	0.060000	32.304194	24.385767	30.345443
365	15	2	0.060000	34.152802	25.881742	29.552783
366	15	2	0.060000	32.951536	27.171233	29.156675
367	15	2	0.060000	33.050113	24.345833	27.906543
368	15	2	0.060000	31.854242	25.637838	27.503498
369	15	2	0.060000	33.722882	27.131951	26.747783
370	15	2	0.060000	34.918669	25.839308	27.149251
371	15	2	0.060000	32.622650	25.598827	25.090370
372	15	2	0.060000	33.816197	24.306222	25.494227
373	15	2	0.060000	35.691810	25.805106	24.723985
374	15	2	0.060000	34.489824	27.087620	24.333923
375	15	4	0.418000	34.801501	24.514714	23.162295
376	16	3	-0.683000	28.194180	8.330862	16.289672
377	16	5	0.145000	29.155216	7.343326	16.553229
378	16	1	-0.120000	28.731033	6.478127	17.743577
379	16	1	-0.120000	28.734431	7.268913	19.058735
380	16	1	-0.120000	28.370794	6.366111	20.243587
381	16	1	-0.120000	28.368508	7.155978	21.557812
382	16	1	-0.120000	28.005545	6.252697	22.742245
383	16	5	0.145000	28.001682	7.039337	24.055560
384	16	3	-0.683000	27.698003	6.189853	25.128232
385	16	4	0.418000	28.457060	9.135084	16.808697
386	16	2	0.060000	30.159128	7.793220	16.734798
387	16	2	0.060000	29.241544	6.693783	15.656602
388	16	2	0.060000	29.439204	5.624756	17.827008
389	16	2	0.060000	27.715326	6.066913	17.553514
390	16	2	0.060000	27.997179	8.098735	18.994300
391	16	2	0.060000	29.744694	7.703961	19.224677
392	16	2	0.060000	27.362034	5.928042	20.075839
393	16	2	0.060000	29.108977	5.536869	20.314598
394	16	2	0.060000	29.377131	7.594496	21.725116
395	16	2	0.060000	27.629753	7.984804	21.487759
396	16	2	0.060000	28.743380	5.423965	22.818345
397	16	2	0.060000	26.997165	5.813203	22.578119
398	16	2	0.060000	27.266050	7.874661	24.004984
399	16	2	0.060000	29.007886	7.477402	24.228480
400	16	4	0.418000	26.719048	6.027557	25.093850
401	17	3	-0.683000	15.606361	9.786496	23.899021
402	17	5	0.145000	15.837227	8.940174	24.993883
403	17	1	-0.120000	14.774390	7.839638	25.061882
404	17	1	-0.120000	13.385913	8.401672	25.395415
405	17	1	-0.120000	12.353348	7.275287	25.522790
406	17	1	-0.120000	10.964279	7.835644	25.850766
407	17	1	-0.120000	9.932399	6.708969	25.978696
408	17	5	0.145000	8.544372	7.266071	26.305242
409	17	3	-0.683000	7.623444	6.219190	26.448067
410	17	4	0.418000	15.035350	10.530255	24.224651
411	17	2	0.060000	15.868236	9.513528	25.949661
412	17	2	0.060000	16.831766	8.463974	24.861879
413	17	2	0.060000	15.073426	7.111192	25.847155
414	17	2	0.060000	14.740128	7.303367	24.088167
415	17	2	0.060000	13.065399	9.099423	24.591230
416	17	2	0.060000	13.436370	8.964086	26.353839
417	17	2	0.060000	12.305625	6.710463	24.565535
418	17	2	0.060000	12.667863	6.577211	26.329864
419	17	2	0.060000	11.012288	8.400953	26.807703
420	17	2	0.060000	10.648786	8.533071	25.043498
421	17	2	0.060000	10.241948	6.010526	26.786993
422	17	2	0.060000	9.881683	6.142246	25.023094
423	17	2	0.060000	8.210257	7.967248	25.506369
424	17	2	0.060000	8.586516	7.829654	27.261720
425	17	4	0.418000	7.404146	5.906619	25.531508
426	18	3	-0.683000	13.079433	21.919066	23.113119
427	18	5	0.145000	14.393381	22.410159	23.138631
428	18	1	-0.120000	15.104009	21.990371	24.428675
429	18	1	-0.120000	14.498480	22.668550	25.664961
430	18	1	-0.120000	15.267695	22.284228	26.934514
431	18	1	-0.120000	14.660581	22.956834	28.171485
432	18	1	-0.120000	15.430473	22.572787	29.440466
433	18	5	0.145000	14.825562	23.242433	30.677103
434	18	3	-0.683000	15.561639	22.903230	31.820606
435	18	4	0.418000	12.501554	22.620238	23.512718
436	18	2	0.060000	14.413714	23.519055	23.023977
437	18	2	0.060000	14.942896	21.978647	22.275422
438	18	2	0.060000	16.176953	22.270639	24.345300
439	18	2	0.060000	15.043006	20.885194	24.537042
440	18	2	0.060000	13.436531	22.358101	25.775343
441	18	2	0.060000	14.533584	23.772664	25.534064
442	18	2	0.060000	15.235799	21.179683	27.063370
443	18	2	0.060000	16.330053	22.597448	26.830181
444	18	2	0.060000	14.691977	24.061331	28.042223
445	18	2	0.060000	13.598445	22.643191	28.276908
446	18	2	0.060000	16.492654	22.887250	29.341104
447	18	2	0.060000	15.400330	21.468924	29.572750
448	18	2	0.060000	13.760453	22.939324	30.800178
449	18	2	0.060000	14.856845	24.346108	30.553917
450	18	4	0.418000	15.302991	21.974982	32.060044
451	19	3	-0.683000	3.752468	26.320582	32.736214
452	19	5	0.145000	4.789568	26.242372	31.794626
453	19	1	-0.120000	5.956630	27.148674	32.197131
454	19	1	-0.120000	5.582921	28.635066	32.119834
455	19	1	-0.120000	6.785346	29.522453	32.463164
456	19	1	-0.120000	6.412152	31.007945	32.391609
457	19	1	-0.120000	7.614925	31.894761	32.734295
458	19	5	0.145000	7.244527	33.378520	32.664443
459	19	3	-0.683000	8.364288	34.171401	32.950697
460	19	4	0.418000	3.138495	27.037999	32.430248
461	19	2	0.060000	4.428485	26.500698	30.771838
462	19	2	0.060000	5.151422	25.192946	31.761975
463	19	2	0.060000	6.808833	26.948697	31.511224
464	19	2	0.060000	6.278046	26.893982	33.230913
465	19	2	0.060000	4.758296	28.847698	32.834732
466	19	2	0.060000	5.231597	28.873860	31.091738
467	19	2	0.060000	7.139060	29.280988	33.489917
468	19	2	0.060000	7.611345	29.316234	31.747065
469	19	2	0.060000	6.057878	31.249122	31.364996
470	19	2	0.060000	5.586820	31.214986	33.108254
471	19	2	0.060000	8.441911	31.693571	32.018331
472	19	2	0.060000	7.971061	31.656329	33.760569
473	19	2	0.060000	6.418697	33.605921	33.377025
474	19	2	0.060000	6.892280	33.625045	31.640041
475	19	4	0.418000	8.493496	34.136046	33.934531
476	20	3	-0.683000	2.174484	20.301206	26.204610
477	20	5	0.145000	2.711185	20.244121	27.499590
478	20	1	-0.120000	4.240415	20.177522	27.450125
479	20	1	-0.120000	4.738846	18.854919	26.852392
480	20	1	-0.120000	6.270432	18.784751	26.874283
481	20	1	-0.120000	6.770269	17.466033	26.272431
482	20	1	-0.120000	8.301651	17.396094	26.295197
483	20	5	0.145000	8.803202	16.080616	25.693883
484	20	3	-0.683000	10.202421	16.023610	25.752218
485	20	4	0.418000	2.000697	19.365440	25.922819
486	20	2	0.060000	2.300309	19.379083	28.070641
487	20	2	0.060000	2.414512	21.167729	28.040175
488	20	2	0.060000	4.629784	20.281275	28.486627
489	20	2	0.060000	4.624619	21.031158	26.849646
490	20	2	0.060000	4.385866	18.766545	25.801729
491	20	2	0.060000	4.323629	18.005707	27.438793
492	20	2	0.060000	6.685732	19.636187	26.290996
493	20	2	0.060000	6.627709	18.868046	27.924527
494	20	2	0.060000	6.354401	16.614691	26.855423
495	20	2	0.060000	6.414114	17.382631	25.221803
496	20	2	0.060000	8.662507	17.475937	27.344195
497	20	2	0.060000	8.720416	18.245815	25.712504
498	20	2	0.060000	8.456766	15.979197	24.639760
499	20	2	0.060000	8.392453	15.227037	26.274348
500	20	4	0.418000	10.541241	16.612334	25.028009
501	21	3	-0.683000	34.037604	4.605178	37.913762
502	21	5	0.145000	34.797984	3.993582	36.905767
503	21	1	-0.120000	35.917755	4.924378	36.431258
504	21	1	-0.120000	35.369188	6.155763	35.697935
505	21	1	-0.120000	36.509750	7.037556	35.175712
506	21	1	-0.120000	35.963263	8.271214	34.447343
507	21	1	-0.120000	37.104058	9.152168	33.924803
508	21	5	0.145000	36.560892	10.385148	33.197930
509	21	3	-0.683000	37.618225	11.160178	32.702105
510	21	4	0.418000	33.287478	5.074945	37.464433
511	21	2	0.060000	34.157701	3.682816	36.047472
512	21	2	0.060000	35.256749	3.073585	37.325813
513	21	2	0.060000	36.580802	4.353839	35.744552
514	21	2	0.060000	36.522415	5.245760	37.307603
515	21	2	0.060000	34.738639	6.751260	36.393700
516	21	2	0.060000	34.739129	5.825241	34.842824
517	21	2	0.060000	37.142059	7.365002	36.030466
518	21	2	0.060000	37.140571	6.446781	34.475250
519	21	2	0.060000	35.330486	7.943623	33.593010
520	21	2	0.060000	35.333129	8.862946	35.147632
521	21	2	0.060000	37.735286	8.565675	33.221550
522	21	2	0.060000	37.738220	9.481819	34.776912
523	21	2	0.060000	35.926899	10.991951	33.884460
524	21	2	0.060000	35.930018	10.063169	32.342022
525	21	4	0.418000	38.000503	11.648583	33.477474
526	22	3	-0.683000	11.535926	4.543387	32.390476
527	22	5	0.145000	10.393398	4.446630	33.198898
528	22	1	-0.120000	9.140179	4.238641	32.343556
529	22	1	-0.120000	8.812265	5.474418	31.494836
530	22	1	-0.120000	7.518581	5.266419	30.698422
531	22	1	-0.120000	7.192370	6.498304	29.845703
532	22	1	-0.120000	5.898431	6.290079	29.050152
533	22	5	0.145000	5.571082	7.518447	28.197175
534	22	3	-0.683000	4.370095	7.319788	27.502459
535	22	4	0.418000	11.665434	5.506471	32.188087
536	22	2	0.060000	10.279059	5.345968	33.847995
537	22	2	0.060000	10.514382	3.569054	33.868616
538	22	2	0.060000	8.285253	4.021588	33.020828
539	22	2	0.060000	9.290254	3.356590	31.682992
540	22	2	0.060000	9.647241	5.670415	30.787235
541	22	2	0.060000	8.696151	6.358321	32.160167
542	22	2	0.060000	7.633361	4.380181	30.035815
543	22	2	0.060000	6.679374	5.074657	31.403090
544	22	2	0.060000	7.078233	7.384565	30.508367
545	22	2	0.060000	8.030831	6.689985	29.140111
546	22	2	0.060000	5.056313	6.101118	29.751664
547	22	2	0.060000	6.009723	5.404875	28.386111
548	22	2	0.060000	6.400181	7.726234	27.482402
549	22	2	0.060000	5.453650	8.406094	28.854856
550	22	4	0.418000	4.577009	6.711600	26.745380
551	23	3	-0.683000	2.657559	7.154979	33.700048
552	23	5	0.145000	3.691582	7.127074	32.752261
553	23	1	-0.120000	4.768612	8.160671	33.094476
554	23	1	-0.120000	4.253350	9.598411	32.944792
555	23	1	-0.120000	5.367034	10.613486	33.228495
556	23	1	-0.120000	4.852406	12.050681	33.084585
557	23	1	-0.120000	5.966486	13.065189	33.367672
558	23	5	0.145000	5.454819	14.501017	33.225521
559	23	3	-0.683000	6.494952	15.411255	33.458022
560	23	4	0.418000	1.975631	7.793370	33.364344
561	23	2	0.060000	3.301084	7.295734	31.721594
562	23	2	0.060000	4.152385	6.116800	32.769748
563	23	2	0.060000	5.631864	8.007442	32.410352
564	23	2	0.060000	5.119346	7.992407	34.136375
565	23	2	0.060000	3.416510	9.768375	33.656907
566	23	2	0.060000	3.874409	9.748309	31.909723
567	23	2	0.060000	5.748601	10.461090	34.262334
568	23	2	0.060000	6.204617	10.449964	32.514834
569	23	2	0.060000	4.470309	12.202744	32.050908
570	23	2	0.060000	4.015410	12.215112	33.798742
571	23	2	0.060000	6.804571	12.906767	32.653876
572	23	2	0.060000	6.350171	12.916014	34.400849
573	23	2	0.060000	4.615346	14.685427	33.934575
574	23	2	0.060000	5.074239	14.658706	32.193753
575	23	4	0.418000	6.632991	15.440020	34.440871
576	24	3	-0.683000	19.825049	10.632937	29.266194
577	24	5	0.145000	19.477195	10.070364	30.503445
578	24	1	-0.120000	18.178456	10.685641	31.032725
579	24	1	-0.120000	18.353304	12.163930	31.405668
580	24	1	-0.120000	17.059242	12.738937	31.993824
581	24	1	-0.120000	17.230675	14.217485	32.362045
582	24	1	-0.120000	15.936739	14.791722	32.950703