
variable        infile index OctaneO.data   # The name of the (edited) data file

#>>>>>> Simulation settings <<<<<<<

units		 real		#angstroms = length -
atom_style	 full		#How the atoms are defined in the input data file
boundary        p p p           #periodic box in x, y and z
pair_style	 lj/cut/coul/long 14.0    #'lj/cut/coul/long 12.0' for your ethanol simulation
pair_modify     tail yes            #Tail corrections
pair_modify     mix arithmetic      #Lorentz-Berthelot pair interactions between dissimilar atom

# The settings below are additional settings you must add for your ethanol simulation as already detailed in your example NPT LAMMPS script in the tutorial
# For your ethanol homework, change/edit the pair_style line as advised above and uncomment the extra settings below and you should be good to go for this section.

special_bonds   lj/coul 0.0 0.0 0.5
kspace_style    ewald 0.0001
bond_style      harmonic
angle_style     harmonic
dihedral_style  opls


# >>> Using the variable command in LAMMPS to define inputs/settings for the simulation <<<<<<

variable   simulationTemp  index 310     #Simulation temperature
variable   simulationPress equal 0.987	#Simulation pressure

# Output files frequencies
variable        dumpfreq   index 1000          #Output frequency of dump information to dump
variable        thermofreq index 1000          #Output frequency of property information to log
variable        printfreq  index 1000          #Output frequency of information to be printed
variable        restartfreq index 1000000      #Output frequency of restart files


# Simulation run times (equilibration and production)
variable        NVT_equib  index 100000       # Equilibration run length (in timesteps)
variable        NVT_prod   index 30000       # Simulation run length  (in timesteps)


# Defining properties to output
# The first expression after the 'variable' command is a user defined name for the variable, it can be anything
# The expression after the 'equal' keyword are LAMMPS special/reserved terms for those property

variable    step        equal step
variable    density     equal density
variable    temp        equal temp
variable    press       equal press
variable    ke          equal ke
variable    pe          equal pe
variable    etotal      equal etotal
variable    enthalpy    equal enthalpy


# >>>>>>>>>>> Reading data, Neighbor list settings, energy minimization, assigning initial velocities & specifying thermodynamic property output style to log files <<<<<<<<<

read_data	${infile}
read_data	OctaneO.data
  orthogonal box = (0 0 0) to (40 40 40)
  3 by 4 by 4 MPI processor grid
  reading atoms ...
  5000 atoms
  scanning bonds ...
  1 = max bonds/atom
  scanning angles ...
  6 = max angles/atom
  scanning dihedrals ...
  9 = max dihedrals/atom
  reading bonds ...
  4800 bonds
  reading angles ...
  8800 angles
  reading dihedrals ...
  12000 dihedrals
  4 = max # of 1-2 neighbors
  6 = max # of 1-3 neighbors
  12 = max # of 1-4 neighbors
  16 = max # of special neighbors
  special bonds CPU = 0.0169343 secs
  read_data CPU = 0.100611 secs
neighbor        1.0 bin
neigh_modify    delay 0 every 1 check yes page 1000000 one 20000
timestep        1.0

minimize        1e-4 1e-6 10000 100000        #Energy minimize before creating velocities
Ewald initialization ...
  using 12-bit tables for long-range coulomb (src/kspace.cpp:332)
  G vector (1/distance) = 0.150844
  estimated absolute RMS force accuracy = 0.0333368
  estimated relative force accuracy = 0.000100393
  KSpace vectors: actual max1d max3d = 257 5 665
                  kxmax kymax kzmax  = 5 5 5
Neighbor list info ...
  update every 1 steps, delay 0 steps, check yes
  max neighbors/atom: 20000, page size: 1000000
  master list distance cutoff = 15
  ghost atom cutoff = 15
  binsize = 7.5, bins = 6 6 6
  1 neighbor lists, perpetual/occasional/extra = 1 0 0
  (1) pair lj/cut/coul/long, perpetual
      attributes: half, newton on
      pair build: half/bin/newton
      stencil: half/bin/3d/newton
      bin: standard
Per MPI rank memory allocation (min/avg/max) = 24.81 | 24.87 | 25.19 Mbytes
Step Temp E_pair E_mol TotEng Press 
       0            0    1037.8302    1400.6987    2438.5289   -9991.1315 
     547            0   -3080.3973    487.77198   -2592.6253   -955.44741 
Loop time of 6.66059 on 48 procs for 547 steps with 5000 atoms

57.1% CPU use with 48 MPI tasks x 1 OpenMP threads

Minimization stats:
  Stopping criterion = energy tolerance
  Energy initial, next-to-last, final = 
         2438.52889021     -2592.37629971     -2592.62531833
  Force two-norm initial, final = 2564.4 25.3469
  Force max component initial, final = 362.557 3.21574
  Final line search alpha, max atom move = 0.00736633 0.0236882
  Iterations, force evaluations = 547 1088

MPI task timing breakdown:
Section |  min time  |  avg time  |  max time  |%varavg| %total
---------------------------------------------------------------
Pair    | 0.50292    | 2.242      | 4.0742     |  55.1 | 33.66
Bond    | 0.020643   | 0.08585    | 0.13089    |   7.6 |  1.29
Kspace  | 0.65581    | 2.4505     | 4.1098     |  51.7 | 36.79
Neigh   | 0.15629    | 0.16314    | 0.17042    |   1.1 |  2.45
Comm    | 0.8947     | 0.99481    | 1.1485     |   6.4 | 14.94
Output  | 0          | 0          | 0          |   0.0 |  0.00
Modify  | 0          | 0          | 0          |   0.0 |  0.00
Other   |            | 0.7242     |            |       | 10.87

Nlocal:    104.167 ave 154 max 24 min
Histogram: 1 0 2 5 4 10 8 5 9 4
Nghost:    5257.17 ave 5475 max 4934 min
Histogram: 13 3 0 0 0 0 0 1 23 8
Neighs:    60574.7 ave 110709 max 11195 min
Histogram: 2 2 5 10 9 3 7 5 2 3

Total # of neighbors = 2907584
Ave neighs/atom = 581.517
Ave special neighs/atom = 10.24
Neighbor list builds = 49
Dangerous builds = 0
#velocity	all create ${simulationTemp} 886874 mom yes rot yes dist gaussian

velocity        all create  ${simulationTemp} 317879265 units box
velocity        all create  310 317879265 units box
velocity        all zero linear units box

# The 'velocity' command line above assigns initial velocities to the atoms in our data file, see the LAMMPS 'velocity' command
# The number '886874' is the seed number which helps LAMMPS to consistently assign the same randomized velocities for the same simulation with the same seed number
# Changing that seed number for your simulation of a given system is one easy way to run an 'independent' simulation of the same system as taught in class
# You will need to do this for your homework

thermo_style    custom step vol temp press ke pe etotal enthalpy evdwl ecoul epair ebond eangle edihed eimp emol elong etail lx ly lz xy xz yz density
thermo          ${thermofreq}
thermo          1000

fix npt_density all npt temp ${simulationTemp} ${simulationTemp} 100 iso ${simulationPress} ${simulationPress} 1000
fix npt_density all npt temp 310 ${simulationTemp} 100 iso ${simulationPress} ${simulationPress} 1000
fix npt_density all npt temp 310 310 100 iso ${simulationPress} ${simulationPress} 1000
fix npt_density all npt temp 310 310 100 iso 0.987 ${simulationPress} 1000
fix npt_density all npt temp 310 310 100 iso 0.987 0.987 1000

run 50000
Ewald initialization ...
  using 12-bit tables for long-range coulomb (src/kspace.cpp:332)
  G vector (1/distance) = 0.150844
  estimated absolute RMS force accuracy = 0.0333368
  estimated relative force accuracy = 0.000100393
  KSpace vectors: actual max1d max3d = 257 5 665
                  kxmax kymax kzmax  = 5 5 5
Per MPI rank memory allocation (min/avg/max) = 23.69 | 23.76 | 24.06 Mbytes
Step Volume Temp Press KinEng PotEng TotEng Enthalpy E_vdwl E_coul E_pair E_bond E_angle E_dihed E_impro E_mol E_long E_tail Lx Ly Lz Xy Xz Yz Density 
     547        64000          310    2343.9301    4619.3315   -2592.6253    2026.7062    4214.4704   -1731.3594    6813.5803   -3080.3973    61.290489    163.76444    262.71704            0    487.77198   -8162.6182   -38.609762           40           40           40            0            0            0   0.68601778 
    1000    63919.023    239.35047   -282.49975    3566.5779    1118.8017    4685.3796    4422.0352   -1482.8388    7143.6979   -2499.3932    1315.2954    1788.9802     513.9193            0    3618.1949   -8160.2523   -38.658676    39.983123    39.983123    39.983123            0            0            0   0.68688688 
    2000    58776.609    314.56451   -351.51956    4687.3476    2051.1074    6738.4549    6437.1336   -1413.5341    7092.8717    -2483.006    1650.8378    2246.6181    636.65742            0    4534.1133   -8162.3435   -42.040955    38.880769    38.880769    38.880769            0            0            0   0.74698318 
    3000    56243.527    306.13513    79.645539    4561.7408    1785.1478    6346.8886    6412.2182   -1477.3608    7021.8795   -2621.7406    1562.3553    2176.5964    667.93676            0    4406.8884   -8166.2592   -43.934385    38.314002    38.314002    38.314002            0            0            0   0.78062562 
    4000    54162.234     310.0429    281.99327    4619.9708     1773.188    6393.1588    6615.9055   -1557.6496     6988.393   -2735.3838    1530.1015    2288.6465    689.82377            0    4508.5718   -8166.1272   -45.622652    37.835446    37.835446    37.835446            0            0            0   0.81062272 
    5000    52158.736    313.37982    213.67428    4669.6945    1522.5538    6192.2483    6354.7864     -1580.57    6807.6308   -2934.7863    1548.9232    2190.4078    718.00915            0    4457.3401   -8161.8471    -47.37509    37.363053    37.363053    37.363053            0            0            0   0.84176001 
    6000     51071.76    310.75606   -561.64082    4630.5977     1472.799    6103.3967    5685.0702   -1569.2512    6697.1985   -3035.5427    1551.0785    2251.2678    705.99545            0    4508.3417     -8163.49   -48.383388    37.101683    37.101683    37.101683            0            0            0   0.85967545 
    7000    49935.023    312.29207    689.70086    4653.4858    1496.0035    6149.4893    6651.7647   -1672.2985    6763.2797   -3076.4052    1580.4425    2235.7798    756.18648            0    4572.4087   -8167.3864   -49.484804    36.824349    36.824349    36.824349            0            0            0   0.87924538 
    8000    50207.961    310.18626   -113.63241    4622.1071    1428.0759     6050.183    5966.9778   -1655.4336    6737.3112   -3082.0274    1585.3223    2203.6302    721.15075            0    4510.1033    -8163.905   -49.215797     36.89132     36.89132     36.89132            0            0            0   0.87446567 
    9000      49134.9    302.20493    195.32282    4503.1767    1418.5705    5921.7472     6061.712   -1643.1205    6654.3304   -3151.4999    1589.0049    2235.0612    746.00434            0    4570.0704   -8162.7098   -50.290624    36.626607    36.626607    36.626607            0            0            0   0.89356319 
   10000    49226.855    311.04157   -1541.3525     4634.852    1390.2471    6025.0992    4918.5264   -1694.2337    6649.8754   -3212.6745    1575.3947    2299.1313     728.3956            0    4602.9216   -8168.3162   -50.196682    36.649442    36.649442    36.649442            0            0            0   0.89189402 
   11000    48930.449    308.25619   -1471.8592    4593.3469     1283.097    5876.4438    4826.1245   -1711.0345    6608.8999   -3269.8917    1597.8531    2238.9067    716.22886            0    4552.9886   -8167.7571   -50.500759    36.575735    36.575735    36.575735            0            0            0   0.89729686 
   12000    48906.699    308.53157    86.567633    4597.4503    1298.1453    5895.5955    5957.3403   -1742.7858     6691.536   -3218.0739    1577.6961    2225.0758    713.44724            0    4516.2192   -8166.8241   -50.525283    36.569817    36.569817    36.569817            0            0            0    0.8977326 
   13000    48876.435     308.1929    537.41722    4592.4038    1381.8211    5974.2249    6357.3027    -1678.686    6604.4498   -3241.9119    1575.2946    2304.3908    744.04768            0     4623.733   -8167.6757   -50.556567    36.562272    36.562272    36.562272            0            0            0   0.89828846 
   14000    48609.981    311.25218   -102.58429    4637.9903    1312.5342    5950.5246    5877.7998   -1701.1657    6562.9573   -3304.6157    1576.3139     2274.278    766.55803            0      4617.15   -8166.4073   -50.833692     36.49571     36.49571     36.49571            0            0            0   0.90321241 
   15000    48807.226    310.27187   -155.43804    4623.3827    1446.7586    6070.1413       5959.5   -1673.7723     6578.293   -3262.8796    1598.9527    2345.7954    764.88998            0    4709.6382   -8167.4003   -50.628257    36.545006    36.545006    36.545006            0            0            0   0.89956226 
   16000    48686.126    311.09073   -30.006394    4635.5845     1244.415    5879.9996    5858.6939   -1726.0862     6563.901   -3330.9288    1573.1377    2252.6435    749.56272            0    4575.3439   -8168.7436   -50.754188    36.514756    36.514756    36.514756            0            0            0   0.90179978 
   17000     48896.55    316.25935    985.80942    4712.6025    1218.3612    5930.9637    6633.9503   -1679.0726    6519.2693   -3329.4492    1572.3679    2212.4479    762.99466            0    4547.8104   -8169.6459    -50.53577    36.567287    36.567287    36.567287            0            0            0   0.89791894 
   18000    48554.826    305.42929    136.30242    4551.2231    1344.3454    5895.5685    5992.0873   -1679.6645    6541.1576   -3307.8335    1620.7642    2279.9917    751.42307            0    4652.1789   -8169.3266   -50.891435    36.481902    36.481902    36.481902            0            0            0   0.90423839 
   19000    48430.777    315.79064    768.04428    4705.6183    1293.6193    5999.2376    6541.7174   -1715.9042    6548.2917   -3337.8571     1555.354     2323.128    752.99441            0    4631.4764   -8170.2446   -51.021787    36.450807    36.450807    36.450807            0            0            0   0.90655449 
   20000    48034.068    313.13983    2015.7758    4666.1184     1223.769    5889.8874     7301.994   -1707.2976    6477.2305    -3399.954    1561.9312    2283.6241    778.16766            0     4623.723   -8169.8869   -51.443171    36.351008    36.351008    36.351008            0            0            0   0.91404163 
   21000    48377.926    310.50335    86.272267     4626.832    1145.8153    5772.6473    5833.5161   -1700.0592    6466.1458   -3404.4543    1537.3312    2275.7449    737.19346            0    4550.2696   -8170.5408   -51.077526    36.437543    36.437543    36.437543            0            0            0   0.90754486 
   22000    47814.412    306.14691    693.64089    4561.9163    1247.8869    5809.8032    6293.4958   -1755.9204    6548.9776   -3377.6737    1556.8873    2274.5337    794.13961            0    4625.5606   -8170.7308   -51.679497    36.295513    36.295513    36.295513            0            0            0   0.91824067 
   23000    48088.136    307.82447   -757.62918    4586.9138    1264.7284    5851.6423    5320.3047   -1704.5451    6451.8705    -3423.883    1625.6313    2303.5758    759.40438            0    4688.6115   -8171.2084   -51.385331    36.364642    36.364642    36.364642            0            0            0   0.91301392 
   24000    48114.328    313.67567   -240.27996     4674.103     1170.135    5844.2379    5675.6339   -1743.0703    6457.2107   -3454.9471    1554.8939    2327.4075    742.78061            0     4625.082   -8169.0875   -51.357359    36.371243    36.371243    36.371243            0            0            0   0.91251692 
   25000    48225.954    309.88656    360.11944    4617.6412    1228.3913    5846.0325    6099.3139   -1724.5155    6473.6463   -3420.6717    1576.9212    2312.4421     759.6997            0     4649.063   -8169.8025   -51.238484    36.399348    36.399348    36.399348            0            0            0   0.91040476 
   26000    48140.378     308.7395    505.36293    4600.5487    1247.2101    5847.7589    6202.5631   -1754.0456    6476.3165   -3445.8062    1597.5291    2342.1888     753.2985            0    4693.0164   -8168.0772   -51.329567    36.377806    36.377806    36.377806            0            0            0   0.91202312 
   27000    47945.625    304.48265    388.36713    4537.1172     1138.926    5676.0432    5947.6041   -1726.3855    6435.0759   -3461.3473    1577.0111    2259.0416    764.22058            0    4600.2733   -8170.0377   -51.538065    36.328684    36.328684    36.328684            0            0            0   0.91572771 
   28000    47823.441    310.18497    1925.9647    4622.0878    1189.3506    5811.4384    7154.7138   -1684.1967    6431.5359   -3423.2545    1577.4375    2251.6018    783.56588            0    4612.6052   -8170.5938   -51.669741    36.297797    36.297797    36.297797            0            0            0   0.91806732 
   29000    47843.985    305.66865    282.67243    4554.7897     1142.071    5696.8607     5894.097   -1724.8813    6411.5009    -3482.442    1641.8311    2218.8431    763.83889            0     4624.513   -8169.0616   -51.647554    36.302994    36.302994    36.302994            0            0            0    0.9176731 
   30000    47749.543    305.00158    461.02623    4544.8497    1209.3567    5754.2064     6075.255   -1711.5213     6423.022   -3459.1851    1593.4702    2294.4972    780.57439            0    4668.5417   -8170.6858   -51.749705    36.279092    36.279092    36.279092            0            0            0   0.91948812 
   31000     47818.21    309.83566    26.533179    4616.8827    1228.6498    5845.5326    5864.0363   -1700.8872    6345.1105   -3524.9712    1657.8242    2328.0271    767.76969            0     4753.621   -8169.1945   -51.675393    36.296474    36.296474    36.296474            0            0            0   0.91816775 
   32000    47699.228    307.79751    -950.9534    4586.5121    1076.6377    5663.1497    5001.6244   -1764.9201    6399.3945   -3535.6127    1645.6415    2203.4718    763.13709            0    4612.2504   -8170.0872   -51.804293    36.266344    36.266344    36.266344            0            0            0   0.92045805 
   33000    48030.849    307.91357   -292.52246    4588.2415    1215.9507    5804.1922    5599.2859   -1711.2736    6370.6596   -3509.2934    1650.5723    2302.6843    771.98739            0     4725.244   -8168.6794   -51.446619    36.350196    36.350196    36.350196            0            0            0   0.91410289 
   34000     47947.17    308.90002   -19.467689    4602.9407    1013.3703    5616.3109    5602.6979   -1779.9248    6398.8747   -3549.0691    1606.8607    2226.7187    728.85988            0    4562.4393   -8168.0189   -51.536405    36.329074    36.329074    36.329074            0            0            0   0.91569821 
   35000    47600.404    309.63579    1643.0063    4613.9045    1047.8907    5661.7951    6802.3751   -1680.4758    6348.8108   -3499.7214    1580.3668    2224.1275    743.11776            0    4547.6121   -8168.0564   -51.911844    36.241282    36.241282    36.241282            0            0            0   0.92236901 
   36000    47860.426    305.17002   -1001.6834    4547.3596    1183.6546    5731.0142     5031.844   -1714.8814    6353.3763   -3531.7475    1609.5488    2298.3445    807.50873            0     4715.402   -8170.2424   -51.629812    36.307152    36.307152    36.307152            0            0            0   0.91735786 
   37000    47703.131    308.95159    -134.9168    4603.7091    1148.6208      5752.33    5658.4682   -1752.6408    6336.5403   -3585.9051    1607.1431    2372.2016    755.18126            0     4734.526   -8169.8046   -51.800054    36.267334    36.267334    36.267334            0            0            0   0.92038272 
   38000      47084.8    300.58983   -76.524123      4479.11    1055.9614    5535.0714    5482.5235    -1767.119     6364.676   -3572.2507    1590.5697    2284.4209    753.22153            0    4628.2121   -8169.8077   -52.480307    36.109952    36.109952    36.109952            0            0            0   0.93246945 
   39000    47289.659    309.89497    1086.4569    4617.7664    1141.5449    5759.3113    6508.6093   -1725.5055     6381.689   -3512.6949    1621.0156    2273.4069    759.81723            0    4654.2398   -8168.8784   -52.252963    36.162246    36.162246    36.162246            0            0            0      0.92843 
   40000    47722.284    311.56828    677.61298    4642.7005    1114.3486    5757.0492    6228.6546   -1739.6243    6410.6768   -3498.9792    1558.3536    2262.7822    792.19203            0    4613.3279   -8170.0317   -51.779265    36.272187    36.272187    36.272187            0            0            0   0.92001334 
   41000    47599.333    309.00473    1400.2838     4604.501    1085.5143    5690.0152    6662.0747   -1721.4732    6349.1369    -3540.588    1591.2628     2266.334    768.50545            0    4626.1022   -8168.2516   -51.913013     36.24101     36.24101     36.24101            0            0            0   0.92238978 
   42000    47680.741    309.67601    508.24906    4614.5037    1098.5104    5713.0142    6066.4377   -1736.4428    6371.2984   -3534.4066    1562.8465    2291.1077    778.96286            0     4632.917   -8169.2623   -51.824379    36.261659    36.261659    36.261659            0            0            0   0.92081493 
   43000    47564.934    315.13605   -56.468758    4695.8642    1158.2826    5854.1468    5814.9752   -1752.1436    6409.0523   -3513.3837    1594.9339    2309.1804    767.55202            0    4671.6663   -8170.2923   -51.950557    36.232277    36.232277    36.232277            0            0            0   0.92305685 
   44000    47348.688     313.2037   -299.29055    4667.0701    1108.7996    5775.8697       5569.2   -1731.9483    6332.5914   -3568.9505     1573.068    2326.2886    778.39347            0    4677.7501   -8169.5936    -52.18782    36.177286    36.177286    36.177286            0            0            0   0.92727254 
   45000    47381.499    306.25057   -1335.4384     4563.461     1085.222     5648.683     4725.881   -1800.8375    6364.5909   -3604.7311    1596.5748    2305.0864    788.29196            0    4689.9531   -8168.4845    -52.15168    36.185641    36.185641    36.185641            0            0            0   0.92663041 
   46000    47532.674    319.61992     104.6301    4762.6786    1149.2076    5911.8862    5984.4174   -1695.4722    6356.6037    -3510.195     1616.041    2289.8898    753.47191            0    4659.4026   -8171.3266   -51.985815    36.224084    36.224084    36.224084            0            0            0   0.92368332 
   47000    47512.269    312.60866    718.14442    4658.2033    1064.4119    5722.6152    6220.2301   -1716.9685    6314.9188   -3571.9063    1554.4252     2322.695    759.19791            0    4636.3181   -8169.8565   -52.008141      36.2189      36.2189      36.2189            0            0            0   0.92408002 
   48000     47741.21    312.62274    567.34025    4658.4131    1066.9368    5725.3499    6120.3643   -1758.9537    6412.8041   -3515.0855    1539.6883    2281.6633    760.67063            0    4582.0222   -8168.9359   -51.758738    36.276981    36.276981    36.276981            0            0            0   0.91964861 
   49000    47175.832    311.88372   -1676.3272    4647.4009    1070.6661     5718.067    4564.7352   -1766.5386    6386.6307   -3549.1746     1568.034     2275.995    775.81177            0    4619.8407   -8169.2667    -52.37904    36.133208    36.133208    36.133208            0            0            0   0.93067013 
   50000    47062.351    314.74996   -1539.0245     4690.111    1156.9825    5847.0934    4790.7746   -1799.4464    6388.7656   -3577.5502    1631.7068    2317.5215     785.3043            0    4734.5326   -8166.8693   -52.505341    36.104212    36.104212    36.104212            0            0            0   0.93291426 
   50547    47348.813    313.16072    330.38444    4666.4296    1206.6227    5873.0523     6101.194   -1775.3278     6425.661   -3517.6778    1621.4023    2331.0818    771.81642            0    4724.3005   -8168.0111   -52.187682    36.177318    36.177318    36.177318            0            0            0   0.92727009 
Loop time of 234.454 on 48 procs for 50000 steps with 5000 atoms

Performance: 18.426 ns/day, 1.303 hours/ns, 213.261 timesteps/s
65.6% CPU use with 48 MPI tasks x 1 OpenMP threads

MPI task timing breakdown:
Section |  min time  |  avg time  |  max time  |%varavg| %total
---------------------------------------------------------------
Pair    | 84.352     | 93.959     | 106.09     |  51.1 | 40.08
Bond    | 3.561      | 4.198      | 5.0364     |  14.0 |  1.79
Kspace  | 23.342     | 36.474     | 47.352     |  88.6 | 15.56
Neigh   | 18.851     | 19.667     | 20.495     |  12.2 |  8.39
Comm    | 45.25      | 51.48      | 59.903     |  44.3 | 21.96
Output  | 0.05606    | 0.056682   | 0.059227   |   0.2 |  0.02
Modify  | 17.598     | 22.25      | 25.675     |  41.2 |  9.49
Other   |            | 6.369      |            |       |  2.72

Nlocal:    104.167 ave 117 max 93 min
Histogram: 2 2 9 8 5 7 5 6 3 1
Nghost:    6688.04 ave 6765 max 6627 min
Histogram: 2 7 7 5 6 7 9 0 3 2
Neighs:    77740.9 ave 88846 max 69247 min
Histogram: 5 8 3 7 5 6 6 3 4 1

Total # of neighbors = 3731563
Ave neighs/atom = 746.313
Ave special neighs/atom = 10.24
Neighbor list builds = 5623
Dangerous builds = 0

unfix npt_density

fix reshape_box all deform 1 x final 0.0 37.4456 y final 0.0 37.4456 z final 0.0 37.4456 units box

run 100000
Ewald initialization ...
  using 12-bit tables for long-range coulomb (src/kspace.cpp:332)
  G vector (1/distance) = 0.153371
  estimated absolute RMS force accuracy = 0.0383795
  estimated relative force accuracy = 0.000115579
  KSpace vectors: actual max1d max3d = 128 4 364
                  kxmax kymax kzmax  = 4 4 4
Per MPI rank memory allocation (min/avg/max) = 22.2 | 22.26 | 22.61 Mbytes
Step Volume Temp Press KinEng PotEng TotEng Enthalpy E_vdwl E_coul E_pair E_bond E_angle E_dihed E_impro E_mol E_long E_tail Lx Ly Lz Xy Xz Yz Density 
   50547    47348.813    313.16072    328.62245    4666.4296    1206.0863    5872.5159    6099.4408   -1775.3278    6561.6396   -3518.2143    1621.4023    2331.0818    771.81642            0    4724.3005   -8304.5261   -52.187682    36.177318    36.177318    36.177318            0            0            0   0.92727009 
   51000    47371.375    313.16072   -66.527045    4666.4296     1207.272    5873.7016    5827.7405     -1777.85    6561.6582   -3520.7148    1625.0885    2331.0818    771.81642            0    4727.9868    -8304.523   -52.162826    36.183063    36.183063    36.183063            0            0            0   0.92682845 
   52000    47421.206    313.16072   -936.66833    4666.4296     1210.892    5877.3216    5229.5315   -1783.3905    6562.2362   -3525.6706    1633.6643    2331.0818    771.81642            0    4736.5625   -8304.5163   -52.108012    36.195746    36.195746    36.195746            0            0            0   0.92585453 
   53000    47471.072    313.16072   -1806.0677    4666.4296    1214.9681    5881.3977    4631.0265    -1788.881    6562.6411   -3530.7494    1642.8193    2331.0818    771.81642            0    4745.7175   -8304.5095   -52.053276    36.208429    36.208429    36.208429            0            0            0   0.92488196 
   54000    47520.973    313.16072    -2672.521    4666.4296    1219.9171    5886.3468    4034.1704   -1794.3179    6563.2861   -3535.5345    1652.5534    2331.0818    771.81642            0    4755.4516   -8304.5027   -51.998615    36.221112    36.221112    36.221112            0            0            0   0.92391076 
   55000    47570.909    313.16072   -3538.7317    4666.4296    1225.2312    5891.6608    3436.5846   -1799.7037     6563.666   -3540.5337    1662.8667    2331.0818    771.81642            0    4765.7649    -8304.496   -51.944032    36.233794    36.233794    36.233794            0            0            0   0.92294092 
   56000    47620.879    313.16072   -4403.7158    4666.4296    1231.0968    5897.5264    2839.1384    -1805.036    6563.9646   -3545.5606    1673.7592    2331.0818    771.81642            0    4776.6574   -8304.4892   -51.889524    36.246477    36.246477    36.246477            0            0            0   0.92197243 
   57000    47670.885    313.16072   -5266.9208    4666.4296    1237.6152    5904.0448    2242.3184    -1810.321    6564.2896   -3550.5138    1685.2308    2331.0818    771.81642            0     4788.129   -8304.4824   -51.835093     36.25916     36.25916     36.25916            0            0            0    0.9210053 
   58000    47720.926    313.16072   -6126.8289    4666.4296     1245.078    5911.5076    1647.4751   -1815.5509    6564.9247   -3555.1018    1697.2816    2331.0818    771.81642            0    4800.1798   -8304.4757   -51.780738    36.271843    36.271843    36.271843            0            0            0   0.92003952 
   59000    47771.002    313.16072   -6984.1077    4666.4296    1253.3571    5919.7867    1054.0213   -1820.7305    6565.7467   -3559.4527    1709.9115    2331.0818    771.81642            0    4812.8097   -8304.4689   -51.726459    36.284526    36.284526    36.284526            0            0            0   0.91907509 
   60000    47821.113    313.16072   -7840.7869    4666.4296    1262.0735    5928.5031    460.16674   -1825.8573     6566.374   -3563.9454    1723.1206    2331.0818    771.81642            0    4826.0189   -8304.4621   -51.672256    36.297208    36.297208    36.297208            0            0            0   0.91811201 
   61000    47871.259    313.16072   -8695.4953    4666.4296    1271.4816    5937.9112   -132.87665    -1830.938    6567.0679   -3568.3255    1736.9089    2331.0818    771.81642            0    4839.8071   -8304.4553   -51.618128    36.309891    36.309891    36.309891            0            0            0   0.91715027 
   62000     47921.44    313.16072   -9548.8004    4666.4296    1281.4793    5947.9089   -725.60487   -1835.9678     6567.721   -3572.6953    1751.2763    2331.0818    771.81642            0    4854.1746   -8304.4485   -51.564077    36.322574    36.322574    36.322574            0            0            0   0.91618988 
   63000    47971.656    313.16072   -10403.002    4666.4296    1291.6284     5958.058   -1320.0634   -1840.9503    6567.8992   -3577.4928     1766.223    2331.0818    771.81642            0    4869.1212   -8304.4418     -51.5101    36.335257    36.335257    36.335257            0            0            0   0.91523083 
   64000    48021.907    313.16072   -11250.841    4666.4296    1303.3074     5969.737    -1909.792   -1845.8819    6568.9773   -3581.3395    1781.7487    2331.0818    771.81642            0     4884.647    -8304.435   -51.456199     36.34794     36.34794     36.34794            0            0            0   0.91427311 
   65000    48072.193    313.16072   -12100.419    4666.4296    1314.9809    5981.4105   -2501.9949   -1850.7649    6569.4221    -3585.771    1797.8537    2331.0818    771.81642            0    4900.7519   -8304.4282   -51.402373    36.360623    36.360623    36.360623            0            0            0   0.91331673 
   66000    48122.514    313.16072   -12946.291    4666.4296    1327.6808    5994.1105   -3091.8232   -1855.6005    6570.2667   -3589.7551    1814.5378    2331.0818    771.81642            0     4917.436   -8304.4214   -51.348622    36.373305    36.373305    36.373305            0            0            0   0.91236168 
   67000     48172.87    313.16072   -13792.819    4666.4296    1340.5814     6007.011   -3683.1601   -1860.3877    6570.6844   -3594.1178     1831.801    2331.0818    771.81642            0    4934.6993   -8304.4146   -51.294946    36.385988    36.385988    36.385988            0            0            0   0.91140797 
   68000    48223.262    313.16072   -14637.627    4666.4296    1354.1339    6020.5635   -4273.8868   -1865.1246    6571.1246   -3598.4078    1849.6434    2331.0818    771.81642            0    4952.5417   -8304.4078   -51.241345    36.398671    36.398671    36.398671            0            0            0   0.91045558 
   69000    48273.688    313.16072   -15480.484    4666.4296    1368.3832    6034.8129   -4863.7921   -1869.8146    6571.6356     -3602.58     1868.065    2331.0818    771.81642            0    4970.9633    -8304.401   -51.187818    36.411354    36.411354    36.411354            0            0            0   0.90950452 
   70000     48324.15    313.16072    -16321.05    4666.4296    1383.3937    6049.8233     -5452.57   -1874.4598    6572.2836   -3606.5703    1887.0658    2331.0818    771.81642            0     4989.964   -8304.3942   -51.134366    36.424037    36.424037    36.424037            0            0            0   0.90855479 
   71000    48374.647    313.16072   -17159.937    4666.4296    1399.0511    6065.4807   -6040.7624   -1879.0559    6572.9504   -3610.4929    1906.6457    2331.0818    771.81642            0    5009.5439   -8304.3874   -51.080988     36.43672     36.43672     36.43672            0            0            0   0.90760637 
   72000    48425.179    313.16072    -17995.76    4666.4296    1415.6211    6082.0507   -6627.1232   -1883.6053    6573.9039   -3614.0819    1926.8048    2331.0818    771.81642            0     5029.703   -8304.3806   -51.027685    36.449402    36.449402    36.449402            0            0            0   0.90665928 
   73000    48475.746    313.16072   -18831.817    4666.4296    1432.4706    6098.9003   -7214.6115   -1888.1114    6574.5145   -3617.9706    1947.5431    2331.0818    771.81642            0    5050.4413   -8304.3738   -50.974456    36.462085    36.462085    36.462085            0            0            0    0.9057135 
   74000    48526.349    313.16072   -19665.669    4666.4296    1450.0704       6116.5   -7801.0321   -1892.5714      6575.25   -3621.6883    1968.8605    2331.0818    771.81642            0    5071.7587   -8304.3669     -50.9213    36.474768    36.474768    36.474768            0            0            0   0.90476904 
   75000    48576.986    313.16072       -20498    4666.4296    1468.2884     6134.718   -8386.9981   -1896.9856    6575.9788   -3625.3669     1990.757    2331.0818    771.81642            0    5093.6553   -8304.3601   -50.868219    36.487451    36.487451    36.487451            0            0            0   0.90382589 
   76000    48627.659    313.16072   -21331.194    4666.4296     1486.669    6153.0986   -8974.6544   -1901.3521    6576.2434   -3629.4621    2013.2328    2331.0818    771.81642            0     5116.131   -8304.3533   -50.815211    36.500134    36.500134    36.500134            0            0            0   0.90288405 
   77000    48678.367    313.16072    -22161.43    4666.4296    1505.9461    6172.3757   -9560.5563    -1905.672    6576.7787   -3633.2398    2036.2877    2331.0818    771.81642            0    5139.1859   -8304.3465   -50.762277    36.512816    36.512816    36.512816            0            0            0   0.90194352 
   78000     48729.11    313.16072   -22990.321    4666.4296    1525.8087    6192.2383   -10146.157   -1909.9488    6577.2772   -3637.0113    2059.9218    2331.0818    771.81642            0      5162.82   -8304.3397   -50.709417    36.525499    36.525499    36.525499            0            0            0    0.9010043 
   79000    48779.889    313.16072   -23816.564    4666.4296    1546.5098    6212.9394   -10730.275   -1914.1818    6577.9912   -3640.5235     2084.135    2331.0818    771.81642            0    5187.0332   -8304.3328    -50.65663    36.538182    36.538182    36.538182            0            0            0   0.90006638 
   80000    48830.703    313.16072   -24643.665    4666.4296     1567.373    6233.8026   -11316.078   -1918.3709    6578.2443   -3644.4527    2108.9274    2331.0818    771.81642            0    5211.8256    -8304.326   -50.603916    36.550865    36.550865    36.550865            0            0            0   0.89912976 
   81000    48881.552    313.16072    -25468.06    4666.4296    1589.0893    6255.5189   -11900.338   -1922.5116    6578.7229   -3648.1079     2134.299    2331.0818    771.81642            0    5237.1972   -8304.3192   -50.551275    36.563548    36.563548    36.563548            0            0            0   0.89819444 
   82000    48932.436    313.16072   -26291.906    4666.4296    1611.2405    6277.6701   -12485.007   -1926.6099    6579.0148   -3651.9074    2160.2497    2331.0818    771.81642            0    5263.1479   -8304.3124   -50.498707    36.576231    36.576231    36.576231            0            0            0   0.89726041 
   83000    48983.356    313.16072   -27113.415    4666.4296    1634.1721    6300.6017   -13068.463   -1930.6648    6579.4646   -3655.5057    2186.7796    2331.0818    771.81642            0    5289.6778   -8304.3055   -50.446212    36.588913    36.588913    36.588913            0            0            0   0.89632768 
   84000    49034.311    313.16072   -27932.982    4666.4296    1657.8086    6324.2382    -13651.06   -1934.6801    6580.0005   -3658.9782    2213.8886    2331.0818    771.81642            0    5316.7869   -8304.2987    -50.39379    36.601596    36.601596    36.601596            0            0            0   0.89539625 
   85000    49085.301    313.16072   -28749.954    4666.4296    1682.2773    6348.7069     -14232.2   -1938.6526    6580.7466   -3662.1978    2241.5769    2331.0818    771.81642            0    5344.4751   -8304.2918   -50.341441    36.614279    36.614279    36.614279            0            0            0    0.8944661 
   86000    49136.327    313.16072   -29566.641    4666.4296     1707.134    6373.5637   -14813.978    -1942.579    6581.2556   -3665.6084    2269.8442    2331.0818    771.81642            0    5372.7425    -8304.285   -50.289164    36.626962    36.626962    36.626962            0            0            0   0.89353724 
   87000    49187.388    313.16072   -30382.082    4666.4296    1732.5651    6398.9947   -15395.519   -1946.4601    6581.7144   -3669.0239    2298.6908    2331.0818    771.81642            0     5401.589   -8304.2782   -50.236959    36.639645    36.639645    36.639645            0            0            0   0.89260967 
   88000    49238.484    313.16072   -31195.834    4666.4296    1758.6521    6425.0817   -15976.421   -1950.3053     6582.214   -3672.3626    2328.1165    2331.0818    771.81642            0    5431.0147   -8304.2713   -50.184826    36.652328    36.652328    36.652328            0            0            0   0.89168338 
   89000    49289.616    313.16072   -32007.861    4666.4296    1785.4083    6451.8379   -16556.645   -1954.1055    6582.7586   -3675.6113    2358.1214    2331.0818    771.81642            0    5461.0196   -8304.2645   -50.132766     36.66501     36.66501     36.66501            0            0            0   0.89075837 
   90000    49340.783    313.16072   -32818.156    4666.4296    1812.8329    6479.2625   -17136.181   -1957.8647    6583.3515   -3678.7708    2388.7054    2331.0818    771.81642            0    5491.6036   -8304.2576   -50.080777    36.677693    36.677693    36.677693            0            0            0   0.88983464 
   91000    49391.986    313.16072   -33626.711    4666.4296    1840.9293    6507.3589   -17715.019   -1961.5829    6583.9961   -3681.8376    2419.8686    2331.0818    771.81642            0    5522.7669   -8304.2508   -50.028861    36.690376    36.690376    36.690376            0            0            0   0.88891219 
   92000    49443.224    313.16072    -34433.46    4666.4296    1869.7115    6536.1411   -18293.094    -1965.258    6584.7042   -3684.7977     2451.611    2331.0818    771.81642            0    5554.5092   -8304.2439   -49.977016    36.703059    36.703059    36.703059            0            0            0   0.88799101 
   93000    49494.497    313.16072   -35240.637    4666.4296    1898.7417    6565.1713   -18872.453   -1968.8954    6585.0434   -3688.0891    2483.9325    2331.0818    771.81642            0    5586.8308    -8304.237   -49.925243    36.715742    36.715742    36.715742            0            0            0    0.8870711 
   94000    49545.806    313.16072   -36044.811    4666.4296    1928.6921    6595.1217   -19449.949   -1972.4926    6585.6834   -3691.0394    2516.8332    2331.0818    771.81642            0    5619.7315   -8304.2302   -49.873541    36.728424    36.728424    36.728424            0            0            0   0.88615247 
   95000     49597.15    313.16072   -36847.445    4666.4296    1959.2782    6625.7078   -20026.917   -1976.0478     6586.338   -3693.9331    2550.3131    2331.0818    771.81642            0    5653.2113   -8304.2233   -49.821911    36.741107    36.741107    36.741107            0            0            0    0.8852351 
   96000     49648.53    313.16072   -37647.916    4666.4296    1990.6228    6657.0524   -20602.782   -1979.5627    6587.1316   -3696.6476    2584.3721    2331.0818    771.81642            0    5687.2703   -8304.2164   -49.770352     36.75379     36.75379     36.75379            0            0            0     0.884319 
   97000    49699.945    313.16072   -38448.766    4666.4296    2022.2269    6688.6565   -21179.882   -1983.0373    6587.5653   -3699.6816    2619.0103    2331.0818    771.81642            0    5721.9085   -8304.2096   -49.718864    36.766473    36.766473    36.766473            0            0            0   0.88340416 
   98000    49751.396    313.16072   -39247.805    4666.4296    2054.5216    6720.9512     -21756.2   -1986.4713    6588.0697   -3702.6043    2654.2277    2331.0818    771.81642            0    5757.1259   -8304.2027   -49.667447    36.779156    36.779156    36.779156            0            0            0   0.88249058 
   99000    49802.882    313.16072   -40044.024    4666.4296    2087.7045    6754.1341   -22330.799   -1989.8695    6588.8474   -3705.2179    2690.0242    2331.0818    771.81642            0    5792.9224   -8304.1958     -49.6161    36.791839    36.791839    36.791839            0            0            0   0.88157826 
  100000    49854.403    313.16072   -40839.451    4666.4296    2121.3796    6787.8092   -22905.548   -1993.2249    6589.4954   -3707.9185    2726.3999    2331.0818    771.81642            0    5829.2981    -8304.189   -49.564825    36.804521    36.804521    36.804521            0            0            0    0.8806672 
  101000    49905.961    313.16072   -41634.486    4666.4296    2155.4673    6821.8969   -23480.816   -1996.5425    6589.9389   -3710.7857    2763.3547    2331.0818    771.81642            0    5866.2529   -8304.1821    -49.51362    36.817204    36.817204    36.817204            0            0            0    0.8797574 
  102000    49957.553    313.16072   -42426.855    4666.4296    2190.4156    6856.8452   -24054.499   -1999.8219    6590.6258   -3713.3714    2800.8887    2331.0818    771.81642            0     5903.787   -8304.1752   -49.462486    36.829887    36.829887    36.829887            0            0            0   0.87884884 
  103000    50009.182    313.16072    -43218.51    4666.4296    2225.8417    6892.2713   -24628.397   -2003.0628    6591.1727   -3716.0584    2839.0019    2331.0818    771.81642            0    5941.9001   -8304.1683   -49.411422     36.84257     36.84257     36.84257            0            0            0   0.87794154 
  104000    50060.845    313.16072   -44008.444    4666.4296     2261.944    6928.3736   -25201.579   -2006.2655    6591.7785   -3718.6484    2877.6942    2331.0818    771.81642            0    5980.5925   -8304.1614   -49.360429    36.855253    36.855253    36.855253            0            0            0   0.87703549 
  105000    50112.545    313.16072   -44798.884    4666.4296    2298.2828    6964.7124   -25776.107   -2009.4295    6592.0029   -3721.5812    2916.9657    2331.0818    771.81642            0     6019.864   -8304.1546   -49.309505    36.867935    36.867935    36.867935            0            0            0   0.87613068 
  106000     50164.28    313.16072   -45586.807    4666.4296    2335.4561    7001.8857   -26349.175   -2012.5575    6592.4467   -3724.2585    2956.8164    2331.0818    771.81642            0    6059.7146   -8304.1477   -49.258652    36.880618    36.880618    36.880618            0            0            0   0.87522712 
  107000     50216.05    313.16072   -46371.261    4666.4296    2373.6548    7040.0844   -26919.889   -2015.6472    6593.2982   -3726.4897    2997.2463    2331.0818    771.81642            0    6100.1445   -8304.1408   -49.207868    36.893301    36.893301    36.893301            0            0            0    0.8743248 
  108000    50267.856    313.16072   -47156.295    4666.4296     2412.075    7078.5046   -27492.017   -2018.7017     6593.757   -3729.0785    3038.2553    2331.0818    771.81642            0    6141.1535   -8304.1339   -49.157154    36.905984    36.905984    36.905984            0            0            0   0.87342372 
  109000    50319.698    313.16072     -47937.8    4666.4296    2451.5358    7117.9654   -28061.725   -2021.7159    6594.6371   -3731.2058    3079.8434    2331.0818    771.81642            0    6182.7416    -8304.127    -49.10651    36.918667    36.918667    36.918667            0            0            0   0.87252387 
  110000    50371.576    313.16072   -48720.601    4666.4296    2491.0762    7157.5058   -28633.513   -2024.6953    6594.9826   -3733.8328    3122.0107    2331.0818    771.81642            0     6224.909   -8304.1201   -49.055936     36.93135     36.93135     36.93135            0            0            0   0.87162526 
  111000    50423.489    313.16072   -49500.499    4666.4296     2531.532    7197.9616   -29203.461   -2027.6399    6595.6297   -3736.1235    3164.7572    2331.0818    771.81642            0    6267.6555   -8304.1132   -49.005431    36.944032    36.944032    36.944032            0            0            0   0.87072789 
  112000    50475.437    313.16072   -50278.692    4666.4296    2572.6677    7239.0973   -29772.681   -2030.5462     6596.339   -3738.3134    3208.0829    2331.0818    771.81642            0    6310.9811   -8304.1063   -48.954995    36.956715    36.956715    36.956715            0            0            0   0.86983175 
  113000    50527.422    313.16072   -51054.434    4666.4296    2614.6305    7281.0601   -30340.473    -2033.418    6597.2619   -3740.2555    3251.9877    2331.0818    771.81642            0    6354.8859   -8304.0994   -48.904628    36.969398    36.969398    36.969398            0            0            0   0.86893683 
  114000    50579.442    313.16072   -51830.638    4666.4296    2656.8426    7323.2722   -30909.561     -2036.25    6597.8151   -3742.5273    3296.4717    2331.0818    771.81642            0    6399.3699   -8304.0925   -48.854331    36.982081    36.982081    36.982081            0            0            0   0.86804315 
  115000    50631.498    313.16072   -52605.217    4666.4296    2699.7184     7366.148   -31477.989   -2039.0483    6598.4192   -3744.7146    3341.5348    2331.0818    771.81642            0    6444.4331   -8304.0856   -48.804102    36.994764    36.994764    36.994764            0            0            0   0.86715069 
  116000    50683.589    313.16072   -53379.979    4666.4296    2742.8975    7409.3272   -32047.454   -2041.8105    6598.7114   -3747.1778    3387.1771    2331.0818    771.81642            0    6490.0754   -8304.0787   -48.753942    37.007447    37.007447    37.007447            0            0            0   0.86625945 
  117000    50735.716    313.16072    -54151.31    4666.4296    2787.1048    7453.5344   -32614.557   -2044.5361    6599.4158    -3749.192    3433.3986    2331.0818    771.81642            0    6536.2969   -8304.0717   -48.703851    37.020129    37.020129    37.020129            0            0            0   0.86536943 
  118000    50787.879    313.16072    -54922.06    4666.4296    2831.7683    7498.1979   -33181.974   -2047.2293    6599.9649   -3751.3292    3480.1993    2331.0818    771.81642            0    6583.0975   -8304.0648   -48.653829    37.032812    37.032812    37.032812            0            0            0   0.86448063 
  119000    50840.078    313.16072   -55692.765    4666.4296    2876.7808    7543.2104   -33750.212   -2049.8872    6600.2487   -3753.6965    3527.5791    2331.0818    771.81642            0    6630.4773   -8304.0579   -48.603875    37.045495    37.045495    37.045495            0            0            0   0.86359305 
  120000    50892.312    313.16072   -56460.978    4666.4296    2922.6355    7589.0651    -34316.96   -2052.5112    6600.7614   -3755.8008     3575.538    2331.0818    771.81642            0    6678.4363    -8304.051   -48.553989    37.058178    37.058178    37.058178            0            0            0   0.86270668 
  121000    50944.582    313.16072   -57228.539    4666.4296    2968.9625    7635.3922   -34883.952   -2055.0997    6601.1319   -3758.0119    3624.0762    2331.0818    771.81642            0    6726.9744   -8304.0441   -48.504172    37.070861    37.070861    37.070861            0            0            0   0.86182153 
  122000    50996.888    313.16072   -57993.174    4666.4296      3016.22    7682.6496   -35449.038   -2057.6547    6601.8201   -3759.8717    3673.1935    2331.0818    771.81642            0    6776.0917   -8304.0371   -48.454423    37.083543    37.083543    37.083543            0            0            0   0.86093759 
  123000     51049.23    313.16072   -58757.317    4666.4296    3063.9183     7730.348   -36014.513    -2060.177    6602.3374   -3761.8698    3722.8899    2331.0818    771.81642            0    6825.7882   -8304.0302   -48.404741    37.096226    37.096226    37.096226            0            0            0   0.86005485 
  124000    51101.608    313.16072   -59521.729    4666.4296    3111.9041    7778.3337     -36581.1   -2062.6659    6602.5295   -3764.1597    3773.1656    2331.0818    771.81642            0    6876.0638   -8304.0233   -48.355128    37.108909    37.108909    37.108909            0            0            0   0.85917332 
  125000    51154.021    313.16072   -60283.709    4666.4296    3160.7235    7827.1531   -37146.237   -2065.1207    6602.9419   -3766.1951    3824.0204    2331.0818    771.81642            0    6926.9186   -8304.0164   -48.305583    37.121592    37.121592    37.121592            0            0            0     0.858293 
  126000     51206.47    313.16072   -61044.309    4666.4296    3210.1643    7876.5939    -37710.92   -2067.5429    6603.3641   -3768.1883    3875.4543    2331.0818    771.81642            0    6978.3525   -8304.0094   -48.256105    37.134275    37.134275    37.134275            0            0            0   0.85741387 
  127000    51258.955    313.16072   -61802.552    4666.4296    3260.4262    7926.8559   -38274.216   -2069.9289    6603.9919   -3769.9394    3927.4674    2331.0818    771.81642            0    7030.3657   -8304.0025   -48.206694    37.146958    37.146958    37.146958            0            0            0   0.85653595 
  128000    51311.476    313.16072   -62559.019    4666.4296     3311.391    7977.8206   -38836.673   -2072.2838    6604.7124   -3771.5669    3980.0597    2331.0818    771.81642            0    7082.9579   -8303.9955   -48.157351     37.15964     37.15964     37.15964            0            0            0   0.85565923 
  129000    51364.033    313.16072   -63315.779    4666.4296    3362.6402    8029.0698   -39400.257   -2074.6054    6605.1047   -3773.4892    4033.2312    2331.0818    771.81642            0    7136.1294   -8303.9886   -48.108076    37.172323    37.172323    37.172323            0            0            0    0.8547837 
  130000    51416.625    313.16072   -64070.891    4666.4296    3414.5668    8080.9964   -39963.122   -2076.8958    6605.5642   -3775.3132    4086.9818    2331.0818    771.81642            0      7189.88   -8303.9817   -48.058867    37.185006    37.185006    37.185006            0            0            0   0.85390936 
  131000    51469.254    313.16072   -64823.384    4666.4296    3467.3703    8133.7999   -40524.335   -2079.1542    6606.2895   -3776.8395    4141.3115    2331.0818    771.81642            0    7244.2098   -8303.9747   -48.009726    37.197689    37.197689    37.197689            0            0            0   0.85303622 
  132000    51521.918    313.16072   -65575.356    4666.4296    3520.6239    8187.0536   -41085.897   -2081.3809    6606.8539   -3778.4948    4196.2205    2331.0818    771.81642            0    7299.1187   -8303.9678   -47.960652    37.210372    37.210372    37.210372            0            0            0   0.85216427 
  133000    51574.619    313.16072   -66325.924    4666.4296    3574.5085    8240.9381   -41646.962   -2083.5752    6607.4377   -3780.0984    4251.7086    2331.0818    771.81642            0    7354.6068   -8303.9608   -47.911644    37.223055    37.223055    37.223055            0            0            0   0.85129351 
  134000    51627.355    313.16072   -67076.131    4666.4296    3628.8119    8295.2416   -42208.525   -2085.7378    6607.8295   -3781.8621    4307.7759    2331.0818    771.81642            0    7410.6741   -8303.9539   -47.862704    37.235737    37.235737    37.235737            0            0            0   0.85042393 
  135000    51680.127    313.16072   -67823.623    4666.4296    3684.0139    8350.4435   -42768.333   -2087.8697    6608.5099   -3783.3066    4364.4223    2331.0818    771.81642            0    7467.3205   -8303.9469   -47.813829     37.24842     37.24842     37.24842            0            0            0   0.84955553 
  136000    51732.935    313.16072   -68569.981    4666.4296    3739.7938    8406.2234   -43327.894   -2089.9691    6609.1568   -3784.7523    4421.6479    2331.0818    771.81642            0    7524.5461     -8303.94   -47.765022    37.261103    37.261103    37.261103            0            0            0   0.84868832 
  137000    51785.779    313.16072    -69315.82    4666.4296    3796.0251    8462.4547   -43887.796   -2092.0393    6609.6465   -3786.3258    4479.4527    2331.0818    771.81642            0    7582.3509    -8303.933   -47.716281    37.273786    37.273786    37.273786            0            0            0   0.84782229 
  138000    51838.659    313.16072   -70060.811    4666.4296    3852.7771    8519.2067   -44447.724   -2094.0764    6610.0447   -3787.9577    4537.8366    2331.0818    771.81642            0    7640.7348    -8303.926   -47.667606    37.286469    37.286469    37.286469            0            0            0   0.84695744 
  139000    51891.575    313.16072   -70803.452    4666.4296     3910.355    8576.7846   -45006.234   -2096.0863    6610.6624   -3789.3429    4596.7997    2331.0818    771.81642            0    7699.6979   -8303.9191   -47.618997    37.299151    37.299151    37.299151            0            0            0   0.84609376 
  140000    51944.527    313.16072   -71544.722    4666.4296    3968.5619    8634.9915    -45564.26   -2098.0641    6611.2979   -3790.6783    4656.3419    2331.0818    771.81642            0    7759.2402   -8303.9121   -47.570455    37.311834    37.311834    37.311834            0            0            0   0.84523125 
  141000    51997.515    313.16072   -72285.206    4666.4296    4027.2752    8693.7049   -46122.367   -2100.0144    6611.8332   -3792.0863    4716.4633    2331.0818    771.81642            0    7819.3616   -8303.9052   -47.521978    37.324517    37.324517    37.324517            0            0            0   0.84436992 
  142000     52050.54    313.16072   -73023.047    4666.4296    4086.8804      8753.31   -46678.757   -2101.9334    6612.6498   -3793.1818    4777.1639    2331.0818    771.81642            0    7880.0622   -8303.8982   -47.473567      37.3372      37.3372      37.3372            0            0            0   0.84350976 
  143000      52103.6    313.16072   -73760.125    4666.4296     4146.992    8813.4216   -47235.242   -2103.8182    6613.3595   -3794.3499    4838.4437    2331.0818    771.81642            0    7941.3419   -8303.8912   -47.425222    37.349883    37.349883    37.349883            0            0            0   0.84265076 
  144000    52156.696    313.16072   -74496.629    4666.4296    4207.5691    8873.9987   -47792.004   -2105.6745     6613.927   -3795.6317    4900.3026    2331.0818    771.81642            0    8003.2008   -8303.8842   -47.376943    37.362566    37.362566    37.362566            0            0            0   0.84179293 
  145000    52209.828    313.16072   -75232.435    4666.4296    4268.6365    8935.0662   -48348.925   -2107.5052    6614.3802   -3797.0024    4962.7407    2331.0818    771.81642            0    8065.6389   -8303.8773   -47.328729    37.375248    37.375248    37.375248            0            0            0   0.84093627 
  146000    52262.996    313.16072   -75965.921    4666.4296    4330.5313    8996.9609   -48904.431   -2109.3054    6615.0509   -3798.1248    5025.7579    2331.0818    771.81642            0    8128.6561   -8303.8703    -47.28058    37.387931    37.387931    37.387931            0            0            0   0.84008077 
  147000    52316.201    313.16072   -76699.154    4666.4296    4392.8256    9059.2552   -49460.522    -2111.079    6615.5153    -3799.427    5089.3543    2331.0818    771.81642            0    8192.2525   -8303.8633   -47.232497    37.400614    37.400614    37.400614            0            0            0   0.83922642 
  148000    52369.441    313.16072   -77430.564    4666.4296    4455.8469    9122.2765   -50015.671   -2112.8218    6616.0969   -3800.5813    5153.5299    2331.0818    771.81642            0    8256.4281   -8303.8563   -47.184479    37.413297    37.413297    37.413297            0            0            0   0.83837324 
  149000    52422.718    313.16072   -78161.119    4666.4296    4519.3937    9185.8233   -50570.819   -2114.5361    6616.5963   -3801.7891    5218.2846    2331.0818    771.81642            0    8321.1828   -8303.8493   -47.136526     37.42598     37.42598     37.42598            0            0            0   0.83752121 
  150000     52476.03    313.16072   -78891.323    4666.4296    4583.3624     9249.792   -51126.453   -2116.2224    6616.9104   -3803.1544    5283.6185    2331.0818    771.81642            0    8386.5167   -8303.8424   -47.088638    37.438662    37.438662    37.438662            0            0            0   0.83667033 
  150547    52505.208    313.16072   -79289.384    4666.4296    4618.7834     9285.213   -51429.412    -2117.132    6617.2545   -3803.7161    5319.6012    2331.0818    771.81642            0    8422.4994   -8303.8385    -47.06247      37.4456      37.4456      37.4456            0            0            0   0.83620539 
Loop time of 370.26 on 48 procs for 100000 steps with 5000 atoms

Performance: 23.335 ns/day, 1.029 hours/ns, 270.080 timesteps/s
66.9% CPU use with 48 MPI tasks x 1 OpenMP threads

MPI task timing breakdown:
Section |  min time  |  avg time  |  max time  |%varavg| %total
---------------------------------------------------------------
Pair    | 152.65     | 177.68     | 210.75     |  96.0 | 47.99
Bond    | 6.1958     | 7.5023     | 9.533      |  27.2 |  2.03
Kspace  | 35.588     | 72.598     | 99.124     | 155.9 | 19.61
Neigh   | 0.033989   | 0.035793   | 0.037402   |   0.6 |  0.01
Comm    | 81.388     | 91.337     | 107.98     |  66.8 | 24.67
Output  | 0.10692    | 0.11619    | 0.12935    |   1.3 |  0.03
Modify  | 0.54645    | 0.64102    | 1.1245     |  15.8 |  0.17
Other   |            | 20.35      |            |       |  5.50

Nlocal:    104.167 ave 117 max 93 min
Histogram: 2 3 9 6 5 8 4 7 3 1
Nghost:    6213.75 ave 6237 max 6178 min
Histogram: 1 2 4 3 9 4 7 5 4 9
Neighs:    70689.8 ave 80670 max 61981 min
Histogram: 5 3 7 6 4 6 7 5 4 1

Total # of neighbors = 3393110
Ave neighs/atom = 678.622
Ave special neighs/atom = 10.24
Neighbor list builds = 10
Dangerous builds = 0
# >>>>>>>>>  Equilibration run <<<<<<<<<<<<<<<<<<<<<<<<<<<<<<<<<<

fix             NVT_equib all nvt temp ${simulationTemp} ${simulationTemp} 100
fix             NVT_equib all nvt temp 310 ${simulationTemp} 100
fix             NVT_equib all nvt temp 310 310 100

print           "Step Density Temperature Pressure KinEng PotEng TotEng" file Properties_equib_OctaneO.txt
Step Density Temperature Pressure KinEng PotEng TotEng
fix             PRINT_equib all print ${printfreq} "$(v_step) $(v_density) $(v_temp) $(v_press) $(v_pe) $(v_ke) $(v_etotal) $(v_enthalpy)" append Properties_equib_OctaneO.txt title ""
fix             PRINT_equib all print 1000 "$(v_step) $(v_density) $(v_temp) $(v_press) $(v_pe) $(v_ke) $(v_etotal) $(v_enthalpy)" append Properties_equib_OctaneO.txt title ""
# The 'print' and fix print' commands as used above will create a file named 'Properties_equib.txt' which allows you to quickly make plots to test for equilibration


run             ${NVT_equib}
run             100000
Ewald initialization ...
  using 12-bit tables for long-range coulomb (src/kspace.cpp:332)
  G vector (1/distance) = 0.152509
  estimated absolute RMS force accuracy = 0.0413498
  estimated relative force accuracy = 0.000124524
  KSpace vectors: actual max1d max3d = 128 4 364
                  kxmax kymax kzmax  = 4 4 4
Per MPI rank memory allocation (min/avg/max) = 22.2 | 22.26 | 22.61 Mbytes
Step Volume Temp Press KinEng PotEng TotEng Enthalpy E_vdwl E_coul E_pair E_bond E_angle E_dihed E_impro E_mol E_long E_tail Lx Ly Lz Xy Xz Yz Density 
  150547    52505.208    313.16072   -79290.303    4666.4296     4618.882    9285.3116   -51430.017   -2117.1337    6570.7276   -3803.6834    5319.6671    2331.0818    771.81642            0    8422.5654   -8257.2773    -47.06247      37.4456      37.4456      37.4456            0            0            0   0.83620539 
151000 0.83620539375020197514 322.51164362430898791 7264.4401638912504495 1521.6862334847699003 4805.768396838229819 6327.4546303230099511 11890.087806489100331
  151000    52505.208    322.51164    7264.4402    4805.7684    1521.6862    6327.4546    11890.088   -1623.9717    6513.5661   -3369.2055    1933.5094    2226.0865    731.29579            0    4890.8918      -8258.8    -47.06247      37.4456      37.4456      37.4456            0            0            0   0.83620539 
152000 0.83620539375020197514 313.47688564847101134 483.60642414970902792 1343.1313382792700395 4671.1408408671295547 6014.2721791464000489 6384.586350437100009
  152000    52505.208    313.47689    483.60642    4671.1408    1343.1313    6014.2722    6384.5864   -1560.6755    6550.3914   -3268.9211    1705.5659    2195.2362    711.25037            0    4612.0524    -8258.637    -47.06247      37.4456      37.4456      37.4456            0            0            0   0.83620539 
153000 0.83620539375020197514 311.80656473542597951 -2910.1180356252398269 1358.6605079017599564 4646.25127295484981 6004.9117808566097665 3776.5337136805101181
  153000    52505.208    311.80656    -2910.118    4646.2513    1358.6605    6004.9118    3776.5337   -1580.6877    6528.4274   -3311.5106    1730.9101    2215.2412    724.01975            0    4670.1711   -8259.2503    -47.06247      37.4456      37.4456      37.4456            0            0            0   0.83620539 
154000 0.83620539375020197514 313.67261202530301034 -1990.0120154864500819 1369.601457057639891 4674.0573731995300477 6043.6588302571699387 4519.8377774887203486
  154000    52505.208    313.67261    -1990.012    4674.0574    1369.6015    6043.6588    4519.8378   -1540.8224    6531.4047   -3267.8329    1654.4465    2258.4408      724.547            0    4637.4343   -8258.4153    -47.06247      37.4456      37.4456      37.4456            0            0            0   0.83620539 
155000 0.83620539375020197514 307.02177255025299019 -1236.4082062276099805 1366.6487940447200344 4574.9527523478600415 5941.6015463925796212 4994.8410043439198489
  155000    52505.208    307.02177   -1236.4082    4574.9528    1366.6488    5941.6015     4994.841   -1524.9864    6513.1435   -3271.6935    1652.6115    2261.7098    724.02104            0    4638.3423   -8259.8507    -47.06247      37.4456      37.4456      37.4456            0            0            0   0.83620539 
156000 0.83620539375020197514 319.7347148169940283 -977.19147929963503429 1388.4916232042598949 4764.3891878506301509 6152.8808110548898185 5404.6114854655497766
  156000    52505.208    319.73471   -977.19148    4764.3892    1388.4916    6152.8808    5404.6115   -1546.1655      6518.45   -3287.2719    1654.9278    2264.7826    756.05313            0    4675.7635   -8259.5565    -47.06247      37.4456      37.4456      37.4456            0            0            0   0.83620539 
157000 0.83620539375020197514 309.5999039661519987 -871.13733284997897499 1290.1970129914300287 4613.3696676014797049 5903.5666805929104157 5236.5066843120102931
  157000    52505.208     309.5999   -871.13733    4613.3697     1290.197    5903.5667    5236.5067   -1518.7431    6490.2721   -3286.4166    1616.2237    2238.8818    721.50815            0    4576.6136   -8257.9456    -47.06247      37.4456      37.4456      37.4456            0            0            0   0.83620539 
158000 0.83620539375020197514 307.88926124366099657 -2097.0930181035901114 1316.2895754523899541 4587.8792616067003109 5904.1688370591000421 4298.3521556865398452
  158000    52505.208    307.88926    -2097.093    4587.8793    1316.2896    5904.1688    4298.3522   -1505.7053    6424.3387   -3338.9893    1676.2151    2222.9789    756.08486            0    4655.2788   -8257.6226    -47.06247      37.4456      37.4456      37.4456            0            0            0   0.83620539 
159000 0.83620539375020197514 311.98682373333497253 -2086.0336202659200353 1420.1350630858000841 4648.9373247998701117 6069.0723878856697411 4471.7242700819797392
  159000    52505.208    311.98682   -2086.0336    4648.9373    1420.1351    6069.0724    4471.7243   -1534.1054    6553.8092   -3237.1753    1653.8703    2240.1647     763.2754            0    4657.3104   -8256.8791    -47.06247      37.4456      37.4456      37.4456            0            0            0   0.83620539 
160000 0.83620539375020197514 315.97884039283900393 -1749.5495259553599681 1407.9364545550199637 4708.4226422485799048 6116.3590968035896367 4776.6684920410198174
  160000    52505.208    315.97884   -1749.5495    4708.4226    1407.9365    6116.3591    4776.6685   -1523.4688    6482.5733   -3298.9544    1672.1056    2293.1089    741.67629            0    4706.8908   -8258.0588    -47.06247      37.4456      37.4456      37.4456            0            0            0   0.83620539 
161000 0.83620539375020197514 308.35648389996498508 -2150.0808811032197809 1317.83649255576006 4594.8413788521902461 5912.6778714079500787 4266.2865500072402938
  161000    52505.208    308.35648   -2150.0809    4594.8414    1317.8365    5912.6779    4266.2866   -1495.2983    6501.5101   -3249.1706    1644.1033    2192.2819    730.62193            0    4567.0071   -8255.3824    -47.06247      37.4456      37.4456      37.4456            0            0            0   0.83620539 
162000 0.83620539375020197514 313.80165043139902536 -318.44086630307998576 1405.1576439752100214 4675.9801834491900081 6081.1378274243998021 5837.2966383470302389
  162000    52505.208    313.80165   -318.44087    4675.9802    1405.1576    6081.1378    5837.2966   -1511.1247    6459.6752   -3310.6767     1627.124    2317.7456    770.96474            0    4715.8344   -8259.2273    -47.06247      37.4456      37.4456      37.4456            0            0            0   0.83620539 
163000 0.83620539375020197514 314.50754628350802022 -1086.6541066029799367 1295.2431197648700163 4686.4987865588300338 5981.7419063237002774 5149.6532597060795524
  163000    52505.208    314.50755   -1086.6541    4686.4988    1295.2431    5981.7419    5149.6533   -1493.7724    6433.1965   -3318.5466    1663.8955    2210.8324    739.06178            0    4613.7897   -8257.9707    -47.06247      37.4456      37.4456      37.4456            0            0            0   0.83620539 
164000 0.83620539375020197514 310.09427661060999526 -1862.6023328938699706 1414.568837605329918 4620.7363487057700695 6035.3051863111004423 4609.0461357568201493
  164000    52505.208    310.09428   -1862.6023    4620.7363    1414.5688    6035.3052    4609.0461   -1512.4421    6511.4033   -3259.6237    1673.6975    2269.2641    731.23097            0    4674.1925   -8258.5848    -47.06247      37.4456      37.4456      37.4456            0            0            0   0.83620539 
165000 0.83620539375020197514 309.90393232115502542 -1146.94107757991992 1309.2930400166299023 4617.900015231100042 5927.1930552477297169 5048.9405890815996827
  165000    52505.208    309.90393   -1146.9411       4617.9     1309.293    5927.1931    5048.9406   -1471.4548    6448.8052   -3280.9871    1621.6016    2243.6752    725.00331            0    4590.2802   -8258.3375    -47.06247      37.4456      37.4456      37.4456            0            0            0   0.83620539 
166000 0.83620539375020197514 312.50201393134500449 -1362.5400965326800815 1283.2127432837201013 4656.6142097151996495 5939.8269529989102011 4896.4828585010100142
  166000    52505.208    312.50201   -1362.5401    4656.6142    1283.2127     5939.827    4896.4829   -1492.6777    6395.6949   -3354.6047    1643.4518    2245.9413    748.42433            0    4637.8174   -8257.6219    -47.06247      37.4456      37.4456      37.4456            0            0            0   0.83620539 
167000 0.83620539375020197514 305.90274945482599378 -1585.4628594844600684 1326.6761207304400614 4558.2781114979898121 5884.9542322284296461 4670.9104652241803706
  167000    52505.208    305.90275   -1585.4629    4558.2781    1326.6761    5884.9542    4670.9105   -1563.6315    6552.6609   -3267.1987    1654.1701     2189.838    749.86678            0    4593.8749   -8256.2281    -47.06247      37.4456      37.4456      37.4456            0            0            0   0.83620539 
168000 0.83620539375020197514 314.22248050201102387 -1209.2517833529300333 1361.1993745504501021 4682.2510015538000516 6043.450376104249699 5117.4844466369595466
  168000    52505.208    314.22248   -1209.2518     4682.251    1361.1994    6043.4504    5117.4844   -1494.2798    6467.5338   -3283.2568    1683.9571    2237.6544    722.84466            0    4644.4562   -8256.5108    -47.06247      37.4456      37.4456      37.4456            0            0            0   0.83620539 
169000 0.83620539375020197514 309.93635784563201696 -1531.8369504205199974 1361.7336382005100859 4618.3831902229603656 5980.1168284234699968 4807.1362753945995792
  169000    52505.208    309.93636    -1531.837    4618.3832    1361.7336    5980.1168    4807.1363   -1523.8572     6544.809   -3237.2298    1632.6094    2244.1247    722.22929            0    4598.9635   -8258.1817    -47.06247      37.4456      37.4456      37.4456            0            0            0   0.83620539 
170000 0.83620539375020197514 306.93967937846400673 -2044.6726244112001041 1315.1041196792000392 4573.7294762944802642 5888.8335959736896257 4323.1570237468204141
  170000    52505.208    306.93968   -2044.6726    4573.7295    1315.1041    5888.8336     4323.157    -1554.286    6520.3221   -3289.9517    1696.0401    2188.9518    720.06396            0    4605.0558   -8255.9878    -47.06247      37.4456      37.4456      37.4456            0            0            0   0.83620539 
171000 0.83620539375020197514 312.39434206363000612 -2216.0119099970997922 1342.8250652433000596 4655.0097837376397365 5997.8348489809395687 4300.95785760571016
  171000    52505.208    312.39434   -2216.0119    4655.0098    1342.8251    5997.8348    4300.9579   -1488.1519    6478.0135   -3267.6526    1658.8879    2225.1322    726.45761            0    4610.4777   -8257.5142    -47.06247      37.4456      37.4456      37.4456            0            0            0   0.83620539 
172000 0.83620539375020197514 306.43757154966402823 -1550.7945896917899518 1337.1078231546900952 4566.2475326711901289 5903.3553558258799967 4715.8582824908098701
  172000    52505.208    306.43757   -1550.7946    4566.2475    1337.1078    5903.3554    4715.8583    -1523.649      6506.78   -3274.8797    1678.6838      2220.03    713.27367            0    4611.9875   -8258.0107    -47.06247      37.4456      37.4456      37.4456            0            0            0   0.83620539 
173000 0.83620539375020197514 312.24251201126099886 -279.67094763481100017 1381.7048002005499256 4652.7473535842200363 6034.4521537847704167 5820.2984328337697661
  173000    52505.208    312.24251   -279.67095    4652.7474    1381.7048    6034.4522    5820.2984   -1468.6637    6478.1672   -3247.3195    1604.7193    2282.5448     741.7602            0    4629.0243    -8256.823    -47.06247      37.4456      37.4456      37.4456            0            0            0   0.83620539 
174000 0.83620539375020197514 315.17854279008099638 -1728.8439142516099309 1327.2728284462600641 4696.4973520972398546 6023.7701805435099232 4699.9345790568304437
  174000    52505.208    315.17854   -1728.8439    4696.4974    1327.2728    6023.7702    4699.9346   -1496.1397    6445.5811   -3307.8845    1648.2616    2248.5073    738.38845            0    4635.1573   -8257.3259    -47.06247      37.4456      37.4456      37.4456            0            0            0   0.83620539 
175000 0.83620539375020197514 310.14747965973299415 -839.85307513999498497 1241.5825732053999673 4621.5291310351603897 5863.111704240560357 5220.0071464935599579
  175000    52505.208    310.14748   -839.85308    4621.5291    1241.5826    5863.1117    5220.0071    -1487.849    6448.6643   -3297.0397    1605.7441    2192.8184    740.05976            0    4538.6223    -8257.855    -47.06247      37.4456      37.4456      37.4456            0            0            0   0.83620539 
176000 0.83620539375020197514 305.745429860180991 -526.37822979458803729 1390.0028888471799746 4555.9338812939204217 5945.936770141100169 5542.8707474045995696
  176000    52505.208    305.74543   -526.37823    4555.9339    1390.0029    5945.9368    5542.8707   -1547.8375    6566.4181   -3238.7335    1640.2192    2252.3581    736.15912            0    4628.7364   -8257.3141    -47.06247      37.4456      37.4456      37.4456            0            0            0   0.83620539 
177000 0.83620539375020197514 312.63612003193702549 -494.59476956283401705 1401.6129632926499653 4658.6125340324297213 6060.2254973250801413 5681.4971697653299998
  177000    52505.208    312.63612   -494.59477    4658.6125     1401.613    6060.2255    5681.4972   -1477.4032      6485.12   -3249.1887    1620.5546    2323.0958    707.15126            0    4650.8016   -8256.9055    -47.06247      37.4456      37.4456      37.4456            0            0            0   0.83620539 
178000 0.83620539375020197514 306.80335024890399609 -1053.505860070989911 1404.2081299110300279 4571.6980264682097186 5975.9061563792402012 5169.2002690287599762
  178000    52505.208    306.80335   -1053.5059     4571.698    1404.2081    5975.9062    5169.2003   -1502.8703    6481.9751   -3277.3609    1622.2529    2330.6531    728.66308            0     4681.569   -8256.4657    -47.06247      37.4456      37.4456      37.4456            0            0            0   0.83620539 
179000 0.83620539375020197514 302.50560022929698789 -991.1658434014290151 1318.4273281448199668 4507.6569549905098029 5826.0842831353302245 5067.1143034536298728
  179000    52505.208     302.5056   -991.16584     4507.657    1318.4273    5826.0843    5067.1143    -1529.728    6522.4505   -3266.4671    1613.3393    2239.6719    731.88314            0    4584.8944   -8259.1895    -47.06247      37.4456      37.4456      37.4456            0            0            0   0.83620539 
180000 0.83620539375020197514 312.15146737100002383 -1362.2627013522198922 1254.9537401559400678 4651.3906910775604047 5906.3444312334995629 4863.2127478228803739
  180000    52505.208    312.15147   -1362.2627    4651.3907    1254.9537    5906.3444    4863.2127    -1476.053    6437.8876   -3295.9511    1654.7817    2186.7259     709.3972            0    4550.9048   -8257.7857    -47.06247      37.4456      37.4456      37.4456            0            0            0   0.83620539 
181000 0.83620539375020197514 306.97946174136598074 227.3758881766129889 1390.8661838284199348 4574.3222760465596366 5965.1884598749802535 6139.2980444398499458
  181000    52505.208    306.97946    227.37589    4574.3223    1390.8662    5965.1885     6139.298   -1457.7593    6464.0058    -3251.554    1660.9617    2232.2706    749.18785            0    4642.4202   -8257.8004    -47.06247      37.4456      37.4456      37.4456            0            0            0   0.83620539 
182000 0.83620539375020197514 310.59517095690699762 -1011.5608560172599937 1314.6171393225499742 4628.2002101420002873 5942.8173494645598112 5168.2302029749998837
  182000    52505.208    310.59517   -1011.5609    4628.2002    1314.6171    5942.8173    5168.2302   -1486.0333    6472.6918   -3272.0044    1626.0604    2240.5098    720.05121            0    4586.6215   -8258.6628    -47.06247      37.4456      37.4456      37.4456            0            0            0   0.83620539 
183000 0.83620539375020197514 305.97072983420997616 -2724.5756725792898578 1421.4406419304100382 4559.2910918517400205 5980.7317337821496039 3894.4298735784500423
  183000    52505.208    305.97073   -2724.5757    4559.2911    1421.4406    5980.7317    3894.4299   -1524.8642    6528.9446   -3255.1918    1669.2964    2275.2093    732.12677            0    4676.6324   -8259.2722    -47.06247      37.4456      37.4456      37.4456            0            0            0   0.83620539 
184000 0.83620539375020197514 310.03284691424397579 -434.93715330398299557 1421.4171280978300729 4619.8209805345295536 6041.2381086323603085 5708.1916819384096016
  184000    52505.208    310.03285   -434.93715     4619.821    1421.4171    6041.2381    5708.1917   -1462.1688    6491.3636   -3230.4383    1629.9263     2260.889    761.04013            0    4651.8554   -8259.6331    -47.06247      37.4456      37.4456      37.4456            0            0            0   0.83620539 
185000 0.83620539375020197514 314.23530176323600926 -1493.0750300736199279 1394.0437553660999583 4682.442052057629553 6076.4858074237299661 4933.1865979298099774
  185000    52505.208     314.2353    -1493.075    4682.4421    1394.0438    6076.4858    4933.1866   -1519.3644    6505.3318   -3272.6109    1619.5388    2314.1808    732.93509            0    4666.6547   -8258.5783    -47.06247      37.4456      37.4456      37.4456            0            0            0   0.83620539 
186000 0.83620539375020197514 309.50899899804102233 -2754.8046115229699353 1339.5280792659400504 4612.015086359219822 5951.5431656251703316 3842.093960979950225
  186000    52505.208      309.509   -2754.8046    4612.0151    1339.5281    5951.5432     3842.094   -1548.1316    6487.0106   -3321.4599     1679.103    2227.9281    753.95683            0    4660.9879   -8260.3389    -47.06247      37.4456      37.4456      37.4456            0            0            0   0.83620539 
187000 0.83620539375020197514 311.97930684636497745 -1467.5375589165801102 1411.4971807105000607 4648.8253151451599479 6060.322495855660236 4936.5782115987303769
[...]
253000 0.83620539375020197514 307.75124036977399555 -1349.4410852601999977 1313.4788610567800333 4585.8226029807501618 5899.3014640375304225 4865.9877356842198424
  253000    52505.208    307.75124   -1349.4411    4585.8226    1313.4789    5899.3015    4865.9877   -1476.0782    6476.8798   -3259.2122    1629.0939    2239.5225    704.07466            0     4572.691   -8260.0138    -47.06247      37.4456      37.4456      37.4456            0            0            0   0.83620539 
254000 0.83620539375020197514 308.3858428654360182 -2220.0582443063199207 1401.3528831002099651 4595.2788588353696468 5996.6317419355800666 4296.6563323804903121
254000 0.83620539375020197514 308.3858428654360182 -2220.0582443063199207 1401.3528831002099651 4595.2788588353696468 5996.6317419355800666 4296.6563323804903121
  254000    52505.208    308.38584   -2220.0582    4595.2789    1401.3529    5996.6317    4296.6563   -1493.0539    6454.6511   -3295.1983    1702.2379    2269.4852    724.82806            0    4696.5512   -8256.7955    -47.06247      37.4456      37.4456      37.4456            0            0            0   0.83620539 
255000 0.83620539375020197514 306.41524812895602281 -1596.0065711389399894 1347.1063241328099593 4565.9148898290795842 5913.0212139618897709 4690.9037621414800014
255000 0.83620539375020197514 306.41524812895602281 -1596.0065711389399894 1347.1063241328099593 4565.9148898290795842 5913.0212139618897709 4690.9037621414800014
  255000    52505.208    306.41525   -1596.0066    4565.9149    1347.1063    5913.0212    4690.9038   -1491.6849    6485.9315   -3263.7131    1639.2051    2250.0905    721.52379            0    4610.8194   -8257.9597    -47.06247      37.4456      37.4456      37.4456            0            0            0   0.83620539 
256000 0.83620539375020197514 308.77092359037300184 -1341.2607808338400446 1280.8556117979699138 4601.0169734576402334 5881.8725852556099198 4854.8227990322702681
256000 0.83620539375020197514 308.77092359037300184 -1341.2607808338400446 1280.8556117979699138 4601.0169734576402334 5881.8725852556099198 4854.8227990322702681
  256000    52505.208    308.77092   -1341.2608     4601.017    1280.8556    5881.8726    4854.8228   -1491.2416    6435.6748    -3315.368    1655.4151    2226.4702    714.33827            0    4596.2236   -8259.8013    -47.06247      37.4456      37.4456      37.4456            0            0            0   0.83620539 
257000 0.83620539375020197514 318.42368135932099449 -784.74303386961196338 1347.8274665681899478 4744.8533872597499794 6092.6808538279401546 5491.7759614363303626
257000 0.83620539375020197514 318.42368135932099449 -784.74303386961196338 1347.8274665681899478 4744.8533872597499794 6092.6808538279401546 5491.7759614363303626
  257000    52505.208    318.42368   -784.74303    4744.8534    1347.8275    6092.6809     5491.776     -1504.39    6506.9717   -3255.0973    1634.1026    2248.4409    720.38126            0    4602.9248   -8257.6789    -47.06247      37.4456      37.4456      37.4456            0            0            0   0.83620539 
258000 0.83620539375020197514 304.14207692509899061 -1271.3597420263199638 1321.2483870650899007 4532.0422078715100724 5853.2905949366004279 4879.7664526371900138
258000 0.83620539375020197514 304.14207692509899061 -1271.3597420263199638 1321.2483870650899007 4532.0422078715100724 5853.2905949366004279 4879.7664526371900138
  258000    52505.208    304.14208   -1271.3597    4532.0422    1321.2484    5853.2906    4879.7665   -1470.4056    6454.6436   -3274.6439    1596.2097     2262.181     737.5016            0    4595.8923   -8258.8819    -47.06247      37.4456      37.4456      37.4456            0            0            0   0.83620539 
259000 0.83620539375020197514 309.74480062474498254 -963.18723909461004951 1352.2753351736500917 4615.528782772789782 5967.8041179464398738 5230.2583236153895996
259000 0.83620539375020197514 309.74480062474498254 -963.18723909461004951 1352.2753351736500917 4615.528782772789782 5967.8041179464398738 5230.2583236153895996
  259000    52505.208     309.7448   -963.18724    4615.5288    1352.2753    5967.8041    5230.2583    -1508.448    6482.9718    -3286.105    1649.3383    2251.9888    737.05326            0    4638.3804   -8260.6288    -47.06247      37.4456      37.4456      37.4456            0            0            0   0.83620539 
260000 0.83620539375020197514 305.27857258914502836 830.13270456299403577 1301.9442297661798875 4548.9772086796601798 5850.9214384458500717 6486.5827721265295622
260000 0.83620539375020197514 305.27857258914502836 830.13270456299403577 1301.9442297661798875 4548.9772086796601798 5850.9214384458500717 6486.5827721265295622
  260000    52505.208    305.27857     830.1327    4548.9772    1301.9442    5850.9214    6486.5828   -1460.9803    6423.4074   -3296.8815     1613.548    2258.2509    727.02671            0    4598.8257   -8259.3086    -47.06247      37.4456      37.4456      37.4456            0            0            0   0.83620539 
261000 0.83620539375020197514 309.97289318902301147 -1826.8187543533499593 1448.2693431098300607 4618.9276059118401463 6067.1969490216697523 4668.3386226334296225
261000 0.83620539375020197514 309.97289318902301147 -1826.8187543533499593 1448.2693431098300607 4618.9276059118401463 6067.1969490216697523 4668.3386226334296225
  261000    52505.208    309.97289   -1826.8188    4618.9276    1448.2693    6067.1969    4668.3386   -1460.3162    6426.0937   -3293.7323     1673.262    2299.7758    768.96375            0    4742.0016   -8259.5098    -47.06247      37.4456      37.4456      37.4456            0            0            0   0.83620539 
262000 0.83620539375020197514 307.51084527301702565 -2881.4978285324300487 1371.4078708039899084 4582.2404589509496873 5953.6483297549402778 3747.1857453815700865
262000 0.83620539375020197514 307.51084527301702565 -2881.4978285324300487 1371.4078708039899084 4582.2404589509496873 5953.6483297549402778 3747.1857453815700865
  262000    52505.208    307.51085   -2881.4978    4582.2405    1371.4079    5953.6483    3747.1857   -1485.5245    6421.5414   -3323.6182     1674.281    2278.9054    741.83962            0     4695.026   -8259.6351    -47.06247      37.4456      37.4456      37.4456            0            0            0   0.83620539 
263000 0.83620539375020197514 305.40636844587601217 105.67721359508000489 1230.4459565386400755 4550.8815036149599109 5781.3274601535904367 5862.2481589337603509
263000 0.83620539375020197514 305.40636844587601217 105.67721359508000489 1230.4459565386400755 4550.8815036149599109 5781.3274601535904367 5862.2481589337603509
  263000    52505.208    305.40637    105.67721    4550.8815     1230.446    5781.3275    5862.2482   -1422.2278    6346.8042   -3334.2971    1590.0771    2226.2574     748.4086            0     4564.743   -8258.8734    -47.06247      37.4456      37.4456      37.4456            0            0            0   0.83620539 
264000 0.83620539375020197514 308.51673480573901998 -1743.0971627096701013 1362.1565160039999682 4597.2292887269495623 5959.38580473095044 4624.6359977511801844
264000 0.83620539375020197514 308.51673480573901998 -1743.0971627096701013 1362.1565160039999682 4597.2292887269495623 5959.38580473095044 4624.6359977511801844
  264000    52505.208    308.51673   -1743.0972    4597.2293    1362.1565    5959.3858     4624.636   -1474.4032    6448.1642   -3281.1565    1691.1017     2216.505    735.70631            0     4643.313   -8254.9175    -47.06247      37.4456      37.4456      37.4456            0            0            0   0.83620539 
265000 0.83620539375020197514 312.16469852852702616 -676.87792680402003498 1491.218959992640066 4651.5878494746502838 6142.8068094672798907 5624.4979615852298593
265000 0.83620539375020197514 312.16469852852702616 -676.87792680402003498 1491.218959992640066 4651.5878494746502838 6142.8068094672798907 5624.4979615852298593
  265000    52505.208     312.1647   -676.87793    4651.5878     1491.219    6142.8068     5624.498   -1513.3969    6506.6526    -3264.589    1685.4029    2312.2868    758.11837            0     4755.808   -8257.8447    -47.06247      37.4456      37.4456      37.4456            0            0            0   0.83620539 
266000 0.83620539375020197514 311.44503753860499273 -2066.4003302852402157 1371.1707089888400333 4640.8641310905895807 6012.0348400794300687 4429.7206117069899847
266000 0.83620539375020197514 311.44503753860499273 -2066.4003302852402157 1371.1707089888400333 4640.8641310905895807 6012.0348400794300687 4429.7206117069899847
  266000    52505.208    311.44504   -2066.4003    4640.8641    1371.1707    6012.0348    4429.7206   -1483.9726    6478.2519   -3264.2172    1636.5966    2263.0602     735.7311            0    4635.3879   -8258.4964    -47.06247      37.4456      37.4456      37.4456            0            0            0   0.83620539 
267000 0.83620539375020197514 306.95149800352800185 -792.93395330368105078 1303.8172372807500778 4573.9055864472502435 5877.7228237279996392 5270.5458609277502546
267000 0.83620539375020197514 306.95149800352800185 -792.93395330368105078 1303.8172372807500778 4573.9055864472502435 5877.7228237279996392 5270.5458609277502546
  267000    52505.208     306.9515   -792.93395    4573.9056    1303.8172    5877.7228    5270.5459   -1518.5941    6480.8162   -3295.4254    1647.7976     2243.261    708.18402            0    4599.2426   -8257.6475    -47.06247      37.4456      37.4456      37.4456            0            0            0   0.83620539 
268000 0.83620539375020197514 317.10057407932600881 -987.07050613869796507 1456.9634010328500153 4725.1376738040498822 6182.1010748368998975 5426.2670365920203039
268000 0.83620539375020197514 317.10057407932600881 -987.07050613869796507 1456.9634010328500153 4725.1376738040498822 6182.1010748368998975 5426.2670365920203039
  268000    52505.208    317.10057   -987.07051    4725.1377    1456.9634    6182.1011     5426.267   -1508.1566    6522.2058   -3243.4708    1694.8859    2270.5753    734.97293            0    4700.4342     -8257.52    -47.06247      37.4456      37.4456      37.4456            0            0            0   0.83620539 
269000 0.83620539375020197514 311.01111241709298838 -1194.376747758529973 1310.458785836530069 4634.3981827232000796 5944.8569685597403804 5030.2813685090695799
269000 0.83620539375020197514 311.01111241709298838 -1194.376747758529973 1310.458785836530069 4634.3981827232000796 5944.8569685597403804 5030.2813685090695799
  269000    52505.208    311.01111   -1194.3767    4634.3982    1310.4588     5944.857    5030.2814   -1504.9811    6494.1476   -3269.3928    1609.6393    2251.7272    718.48503            0    4579.8515   -8258.5593    -47.06247      37.4456      37.4456      37.4456            0            0            0   0.83620539 
270000 0.83620539375020197514 306.8131794436050086 -1572.046676579690029 1267.9440839615099321 4571.8444919809999192 5839.7885759425098513 4636.0180443755198212
270000 0.83620539375020197514 306.8131794436050086 -1572.046676579690029 1267.9440839615099321 4571.8444919809999192 5839.7885759425098513 4636.0180443755198212
  270000    52505.208    306.81318   -1572.0467    4571.8445    1267.9441    5839.7886     4636.018   -1480.8158    6440.7783   -3298.0305    1645.4306    2215.1249    705.41909            0    4565.9746   -8257.9931    -47.06247      37.4456      37.4456      37.4456            0            0            0   0.83620539 
271000 0.83620539375020197514 310.86975136004002707 159.90524483392599109 1310.0558107684200877 4632.2917517959403995 5942.3475625643695821 6064.7925411020796673
271000 0.83620539375020197514 310.86975136004002707 159.90524483392599109 1310.0558107684200877 4632.2917517959403995 5942.3475625643695821 6064.7925411020796673
  271000    52505.208    310.86975    159.90524    4632.2918    1310.0558    5942.3476    6064.7925   -1510.9966    6455.8752   -3312.3365    1569.4659    2330.7911    722.13534            0    4622.3924   -8257.2152    -47.06247      37.4456      37.4456      37.4456            0            0            0   0.83620539 
272000 0.83620539375020197514 305.83724276970497158 -2251.5130966836500193 1297.4928554990599423 4557.3019918342197343 5854.794847333279904 4130.7333690050900259
272000 0.83620539375020197514 305.83724276970497158 -2251.5130966836500193 1297.4928554990599423 4557.3019918342197343 5854.794847333279904 4130.7333690050900259
  272000    52505.208    305.83724   -2251.5131     4557.302    1297.4929    5854.7948    4130.7334   -1452.9749    6380.7775   -3327.6455    1673.3833    2185.8479    765.90708            0    4625.1383   -8255.4481    -47.06247      37.4456      37.4456      37.4456            0            0            0   0.83620539 
273000 0.83620539375020197514 308.83990498037900352 -1039.4303522057300597 1299.8094147153999529 4602.0448699401804333 5901.8542846555801589 5105.9265006766299848
273000 0.83620539375020197514 308.83990498037900352 -1039.4303522057300597 1299.8094147153999529 4602.0448699401804333 5901.8542846555801589 5105.9265006766299848
  273000    52505.208     308.8399   -1039.4304    4602.0449    1299.8094    5901.8543    5105.9265   -1518.2411    6502.2278   -3274.4057    1578.9488     2263.722    731.54434            0    4574.2152   -8258.3924    -47.06247      37.4456      37.4456      37.4456            0            0            0   0.83620539 
274000 0.83620539375020197514 312.60983604822098414 -206.12965903491800645 1402.0697051396500683 4658.2208745659199849 6060.2905797055800576 5902.4499678936899727
274000 0.83620539375020197514 312.60983604822098414 -206.12965903491800645 1402.0697051396500683 4658.2208745659199849 6060.2905797055800576 5902.4499678936899727
  274000    52505.208    312.60984   -206.12966    4658.2209    1402.0697    6060.2906      5902.45   -1416.0547    6424.4433   -3248.9774     1653.288    2265.7884    731.97067            0    4651.0471    -8257.366    -47.06247      37.4456      37.4456      37.4456            0            0            0   0.83620539 
275000 0.83620539375020197514 311.77771724463298142 -1006.8190878334800118 1350.8990645384299114 4645.8214144913699784 5996.7204790297901127 5225.7642684991997157
275000 0.83620539375020197514 311.77771724463298142 -1006.8190878334800118 1350.8990645384299114 4645.8214144913699784 5996.7204790297901127 5225.7642684991997157
  275000    52505.208    311.77772   -1006.8191    4645.8214    1350.8991    5996.7205    5225.7643   -1467.5143    6431.1743   -3292.1002    1601.6524     2301.182     740.1649            0    4642.9993   -8255.7603    -47.06247      37.4456      37.4456      37.4456            0            0            0   0.83620539 
276000 0.83620539375020197514 312.75595515376397771 -1444.862281764169893 1382.3231537815499905 4660.3982055041296917 6042.7213592856796822 4936.3403192872301588
276000 0.83620539375020197514 312.75595515376397771 -1444.862281764169893 1382.3231537815499905 4660.3982055041296917 6042.7213592856796822 4936.3403192872301588
  276000    52505.208    312.75596   -1444.8623    4660.3982    1382.3232    6042.7214    4936.3403   -1504.5599     6455.126   -3308.4713    1675.7279    2303.3832    711.68336            0    4690.7945   -8259.0375    -47.06247      37.4456      37.4456      37.4456            0            0            0   0.83620539 
277000 0.83620539375020197514 307.13344141524999031 -1967.6309084640899982 1361.6757196185299108 4576.6167378594500406 5938.2924574779799514 4431.6093927214296855
277000 0.83620539375020197514 307.13344141524999031 -1967.6309084640899982 1361.6757196185299108 4576.6167378594500406 5938.2924574779799514 4431.6093927214296855
  277000    52505.208    307.13344   -1967.6309    4576.6167    1361.6757    5938.2925    4431.6094   -1517.6468    6444.4213    -3332.101    1652.8435    2310.5986    730.33462            0    4693.7767   -8258.8754    -47.06247      37.4456      37.4456      37.4456            0            0            0   0.83620539 
278000 0.83620539375020197514 312.37398234925302631 -584.94812911663598243 1363.0497840298100982 4654.7064022199401734 6017.7561862497495895 5569.8411651399101174
278000 0.83620539375020197514 312.37398234925302631 -584.94812911663598243 1363.0497840298100982 4654.7064022199401734 6017.7561862497495895 5569.8411651399101174
  278000    52505.208    312.37398   -584.94813    4654.7064    1363.0498    6017.7562    5569.8412   -1484.6591     6467.361   -3276.3601    1661.0357    2247.2499     731.1243            0    4639.4099    -8259.062    -47.06247      37.4456      37.4456      37.4456            0            0            0   0.83620539 
279000 0.83620539375020197514 311.83894880090497281 -2746.0358456985800331 1306.6458754182399389 4646.7338301632998991 5953.3797055815502972 3850.6450483189701117
279000 0.83620539375020197514 311.83894880090497281 -2746.0358456985800331 1306.6458754182399389 4646.7338301632998991 5953.3797055815502972 3850.6450483189701117
  279000    52505.208    311.83895   -2746.0358    4646.7338    1306.6459    5953.3797     3850.645   -1509.9935    6468.5346   -3301.0276     1651.772     2236.785    719.11649            0    4607.6734   -8259.5687    -47.06247      37.4456      37.4456      37.4456            0            0            0   0.83620539 
280000 0.83620539375020197514 306.33140305074198295 -1774.392579060089929 1380.1431405812400044 4564.6655084964204434 5944.8086490776604478 4586.0948590069401689
280000 0.83620539375020197514 306.33140305074198295 -1774.392579060089929 1380.1431405812400044 4564.6655084964204434 5944.8086490776604478 4586.0948590069401689
  280000    52505.208     306.3314   -1774.3926    4564.6655    1380.1431    5944.8086    4586.0949    -1506.542    6469.7732   -3296.2331    1661.0068    2292.2653    723.10412            0    4676.3762   -8259.4643    -47.06247      37.4456      37.4456      37.4456            0            0            0   0.83620539 
  280547    52505.208    306.12091   -1037.3457    4561.5289    1376.7241     5938.253    5143.9216   -1473.4461    6442.2064   -3290.5709    1670.3902    2253.1576    743.74729            0     4667.295   -8259.3312    -47.06247      37.4456      37.4456      37.4456            0            0            0   0.83620539 
Loop time of 131.019 on 48 procs for 30000 steps with 5000 atoms

Performance: 19.783 ns/day, 1.213 hours/ns, 228.974 timesteps/s
64.6% CPU use with 48 MPI tasks x 1 OpenMP threads

MPI task timing breakdown:
Section |  min time  |  avg time  |  max time  |%varavg| %total
---------------------------------------------------------------
Pair    | 39.721     | 50.375     | 58.585     |  63.4 | 38.45
Bond    | 1.5291     | 2.2535     | 2.7825     |  15.5 |  1.72
Kspace  | 15.147     | 25.014     | 34.733     |  93.7 | 19.09
Neigh   | 11.331     | 11.781     | 12.263     |   9.0 |  8.99
Comm    | 27.917     | 31.606     | 36.618     |  32.8 | 24.12
Output  | 0.16055    | 0.16096    | 0.16116    |   0.0 |  0.12
Modify  | 2.8752     | 5.8586     | 7.6786     |  49.5 |  4.47
Other   |            | 3.97       |            |       |  3.03

Nlocal:    104.167 ave 130 max 79 min
Histogram: 1 1 3 7 11 13 6 4 1 1
Nghost:    6170.98 ave 6259 max 6052 min
Histogram: 2 0 5 4 9 3 5 12 3 5
Neighs:    70146.7 ave 88940 max 51471 min
Histogram: 1 0 5 10 9 10 7 3 1 2

Total # of neighbors = 3367040
Ave neighs/atom = 673.408
Ave special neighs/atom = 10.24
Neighbor list builds = 3357
Dangerous builds = 0

write_data      restart.${NAME}.final.data
write_data      restart.OctaneO.final.data
Ewald initialization ...
  using 12-bit tables for long-range coulomb (src/kspace.cpp:332)
  G vector (1/distance) = 0.152509
  estimated absolute RMS force accuracy = 0.0413498
  estimated relative force accuracy = 0.000124524
  KSpace vectors: actual max1d max3d = 128 4 364
                  kxmax kymax kzmax  = 4 4 4
Total wall time: 0:19:19
