
variable        infile index DCM.data   # The name of the (edited) data file

#>>>>>> Simulation settings <<<<<<<

units		 real		#angstroms = length -
atom_style	 full		#How the atoms are defined in the input data file
boundary        p p p           #periodic box in x, y and z
pair_style	 lj/cut/coul/long 14.0    #'lj/cut/coul/long
pair_modify     tail yes            #Tail corrections
pair_modify     mix arithmetic      #Lorentz-Berthelot pair interactions between dissimilar atom

special_bonds   lj/coul 0.0 0.0 0.5
kspace_style    ewald 0.0001
bond_style      harmonic
angle_style     harmonic
dihedral_style  opls


# inputs settings
variable   simulationTemp  index 310     #Simulation temperature
variable   simulationPress equal 0.987	 #Simulation pressure

# Output files frequencies
variable        dumpfreq   index 1000          #Output frequency of dump information to dump
variable        thermofreq index 1000          #Output frequency of property information to log
variable        printfreq  index 1000          #Output frequency of information to be printed
variable        restartfreq index 1000000      #Output frequency of restart files


# Simulation run times (equilibration and production)
variable        NVT_equib  index 100000       # Equilibration run length (in timesteps)
variable        NVT_prod   index 30000       # Simulation run length  (in timesteps)


# Output
variable    step        equal step
variable    density     equal density
variable    temp        equal temp
variable    press       equal press
variable    ke          equal ke
variable    pe          equal pe
variable    etotal      equal etotal
variable    enthalpy    equal enthalpy


# >>>>>>>>>>> Reading data, Neighbor list settings, energy minimization, assigning initial velocities & specifying thermodynamic property output style to log files <<<<<<<<<

read_data	${infile}
read_data	DCM.data
  orthogonal box = (0 0 0) to (40 40 40)
  3 by 4 by 4 MPI processor grid
  reading atoms ...
  1000 atoms
  scanning bonds ...
  1 = max bonds/atom
  scanning angles ...
  6 = max angles/atom
  reading bonds ...
  800 bonds
  reading angles ...
  1200 angles
  4 = max # of 1-2 neighbors
  3 = max # of 1-3 neighbors
  3 = max # of 1-4 neighbors
  4 = max # of special neighbors
  special bonds CPU = 0.0203743 secs
  read_data CPU = 0.041753 secs
neighbor        1.0 bin
neigh_modify    delay 0 every 1 check yes page 1000000 one 20000
timestep        1.0

minimize        1e-4 1e-6 10000 100000        #Energy minimize before creating velocities
Ewald initialization ...
WARNING: System is not charge neutral, net charge = -40 (src/kspace.cpp:313)
  using 12-bit tables for long-range coulomb (src/kspace.cpp:332)
  G vector (1/distance) = 0.115285
  estimated absolute RMS force accuracy = 0.0337667
  estimated relative force accuracy = 0.000101687
  KSpace vectors: actual max1d max3d = 61 3 171
                  kxmax kymax kzmax  = 3 3 3
Neighbor list info ...
  update every 1 steps, delay 0 steps, check yes
  max neighbors/atom: 20000, page size: 1000000
  master list distance cutoff = 15
  ghost atom cutoff = 15
  binsize = 7.5, bins = 6 6 6
  1 neighbor lists, perpetual/occasional/extra = 1 0 0
  (1) pair lj/cut/coul/long, perpetual
      attributes: half, newton on
      pair build: half/bin/newton
      stencil: half/bin/3d/newton
      bin: standard
Per MPI rank memory allocation (min/avg/max) = 17.95 | 18 | 18.24 Mbytes
Step Temp E_pair E_mol TotEng Press 
       0            0    5600.6418    124.83511     5725.477    26842.772 
     262            0   -1193.6044     25.32054   -1168.2839    257.80356 
Loop time of 0.828006 on 48 procs for 262 steps with 1000 atoms

32.4% CPU use with 48 MPI tasks x 1 OpenMP threads

Minimization stats:
  Stopping criterion = energy tolerance
  Energy initial, next-to-last, final = 
          5725.4769518      -1168.1980516     -1168.28387185
  Force two-norm initial, final = 6441.07 20.2299
  Force max component initial, final = 1290.43 3.07025
  Final line search alpha, max atom move = 0.0101591 0.031191
  Iterations, force evaluations = 262 504

MPI task timing breakdown:
Section |  min time  |  avg time  |  max time  |%varavg| %total
---------------------------------------------------------------
Pair    | 0.0095254  | 0.040678   | 0.10844    |  11.7 |  4.91
Bond    | 0.00060723 | 0.0015853  | 0.0032479  |   1.6 |  0.19
Kspace  | 0.11523    | 0.1924     | 0.22794    |   5.9 | 23.24
Neigh   | 0.0090338  | 0.012652   | 0.01542    |   1.9 |  1.53
Comm    | 0.2486     | 0.3047     | 0.38637    |   5.8 | 36.80
Output  | 0          | 0          | 0          |   0.0 |  0.00
Modify  | 0          | 0          | 0          |   0.0 |  0.00
Other   |            | 0.276      |            |       | 33.33

Nlocal:    20.8333 ave 47 max 6 min
Histogram: 7 11 6 4 5 6 4 1 2 2
Nghost:    1041.5 ave 1094 max 959 min
Histogram: 2 4 9 1 0 1 7 4 10 10
Neighs:    2323.62 ave 6335 max 745 min
Histogram: 15 12 1 6 4 4 2 3 0 1

Total # of neighbors = 111534
Ave neighs/atom = 111.534
Ave special neighs/atom = 4
Neighbor list builds = 24
Dangerous builds = 0
#velocity	all create ${simulationTemp} 886874 mom yes rot yes dist gaussian

velocity        all create  ${simulationTemp} 317879265 units box
velocity        all create  310 317879265 units box
velocity        all zero linear units box

# The 'velocity' command line above assigns initial velocities to the atoms in our data file, see the LAMMPS 'velocity' command
# The number '886874' is the seed number which helps LAMMPS to consistently assign the same randomized velocities for the same simulation with the same seed number
# Changing that seed number for your simulation of a given system is one easy way to run an 'independent' simulation of the same system as taught in class
# You will need to do this for your homework

thermo_style    custom step vol temp press ke pe etotal enthalpy evdwl ecoul epair ebond eangle edihed eimp emol elong etail lx ly lz xy xz yz density
thermo          ${thermofreq}
thermo          1000

fix npt_density all npt temp ${simulationTemp} ${simulationTemp} 100 iso ${simulationPress} ${simulationPress} 1000
fix npt_density all npt temp 310 ${simulationTemp} 100 iso ${simulationPress} ${simulationPress} 1000
fix npt_density all npt temp 310 310 100 iso ${simulationPress} ${simulationPress} 1000
fix npt_density all npt temp 310 310 100 iso 0.987 ${simulationPress} 1000
fix npt_density all npt temp 310 310 100 iso 0.987 0.987 1000

run 50000
Ewald initialization ...
  using 12-bit tables for long-range coulomb (src/kspace.cpp:332)
  G vector (1/distance) = 0.115285
  estimated absolute RMS force accuracy = 0.0337667
  estimated relative force accuracy = 0.000101687
  KSpace vectors: actual max1d max3d = 61 3 171
                  kxmax kymax kzmax  = 3 3 3
Per MPI rank memory allocation (min/avg/max) = 16.82 | 16.89 | 17.12 Mbytes
Step Volume Temp Press KinEng PotEng TotEng Enthalpy E_vdwl E_coul E_pair E_bond E_angle E_dihed E_impro E_mol E_long E_tail Lx Ly Lz Xy Xz Yz Density 
     262        64000          310    917.15106    923.12706   -1168.2839   -245.15681    610.88847   -508.26483    719.79454   -1193.6044   0.24295626    25.077583            0            0     25.32054   -1405.1341   -6.8373222           40           40           40            0            0            0   0.44073336 
    1000     80900.69    328.06905    231.01963    976.93361    -324.8151    652.11852    924.68786   -274.84762    680.74465    -784.5106    196.50895    263.18655            0            0    459.69551   -1190.4076   -5.4089603    43.249797    43.249797    43.249797            0            0            0   0.34866124 
    2000     104929.8    336.34227    162.01652    1001.5698   -170.84235    830.72748    1078.6603    -188.3402    572.50282   -636.73634    195.73217    270.16182            0            0    465.89399    -1020.899   -4.1702987    47.166424    47.166424    47.166424            0            0            0   0.26881719 
    3000    130071.63    333.35253    315.73541    992.66692    -64.88561    927.78131    1526.7192   -147.81561    494.24422   -552.30563    191.95546    295.46456            0            0    487.42002   -898.73425   -3.3642127    50.667273    50.667273    50.667273            0            0            0   0.21685694 
    4000    157943.02     327.1419    97.756604    974.17271     25.34471    999.51742    1224.6936   -124.41434    447.09507   -492.66464    207.64592    310.36343            0            0    518.00935   -815.34538   -2.7705474    54.054702    54.054702    54.054702            0            0            0   0.17858931 
    5000    187510.15    306.61088   -41.551324    913.03483    112.60925    1025.6441    912.01603   -90.792151    404.00974   -436.03739    249.71245    298.93419            0            0    548.64664   -749.25498   -2.3336796    57.236745    57.236745    57.236745            0            0            0   0.15042884 
    6000    219158.41    303.25486   -19.295113    903.04119    151.30746    1054.3486     992.6776   -81.192005    371.81161   -412.04501     242.5695    320.78297            0            0    563.35247   -702.66462   -1.9966773    60.291032    60.291032    60.291032            0            0            0   0.12870569 
    7000    253274.61    315.86845    119.49826    940.60232    150.66978    1091.2721    1532.6689   -70.413133    351.43099   -378.07485    227.25375    301.49088            0            0    528.74463   -659.09271    -1.727724    63.269911    63.269911    63.269911            0            0            0   0.11136898 
    8000    289788.89    318.41836    26.807813     948.1955    249.58438    1197.7799     1311.077    -54.71421    341.12002    -335.2907    264.79102    320.08406            0            0    584.87508   -621.69651   -1.5100255    66.174994    66.174994    66.174994            0            0            0  0.097336151 
    9000    331151.53    329.24034      35.8874    980.42152    255.76895    1236.1905    1409.5089    -45.82631    327.91598   -323.51362     260.6773    318.60527            0            0    579.28256   -605.60328   -1.3214151    69.184519    69.184519    69.184519            0            0            0  0.085178331 
   10000     376035.1    303.72481    14.178596    904.44061    323.49369    1227.9343    1305.6909   -37.573324    315.68056   -303.19516    276.19268    350.49617            0            0    626.68885    -581.3024   -1.1636909    72.178767    72.178767    72.178767            0            0            0  0.075011442 
   11000    424833.72    315.39064   -48.427197    939.17946    329.95894    1269.1384    969.09491   -40.790711    314.73097   -280.60251    275.33252    335.22894            0            0    610.56146   -554.54277   -1.0300233    75.174923    75.174923    75.174923            0            0            0  0.066395235 
   12000    473812.85    312.23323    13.739639    929.77723    368.05975     1297.837    1392.7789   -36.255909    304.18333   -266.91118    274.98857    359.98236            0            0    634.97093    -534.8386  -0.92354739    77.959482    77.959482    77.959482            0            0            0  0.059531806 
   13000    530916.27     300.4132    8.9082385    894.57922    377.46256    1272.0418    1341.0171   -30.596867    295.32488   -256.96086    275.79696    358.62646            0            0    634.42342   -521.68887    -0.824214    80.973332    80.973332    80.973332            0            0            0  0.053128783 
   14000    589287.05    290.17496   -24.558165    864.09149    366.81757    1230.9091    1019.8526   -24.332261     288.7909   -251.48452    272.10348    346.19861            0            0    618.30209   -515.94316  -0.74257295    83.838268    83.838268    83.838268            0            0            0  0.047866205 
   15000    653939.22    304.48702    44.198138    906.71035    363.86629    1270.5766    1692.0957    -22.86091    283.51317   -245.78675    253.85719    355.79585            0            0    609.65304   -506.43901  -0.66915795    86.798548    86.798548    86.798548            0            0            0  0.043133879 
   16000    717839.04    309.46693    -7.039757    921.53966    403.99742    1325.5371    1251.8382   -20.244744    279.76734   -225.21251    276.32205    352.88788            0            0    629.20993   -484.73511  -0.60959156    89.538337    89.538337    89.538337            0            0            0  0.039294234 
   17000    782209.49    314.66375    -10.57192    937.01492     435.0193    1372.0342    1251.4327   -19.912129    279.11092   -213.28501    274.55127    373.75304            0            0    648.30431    -472.4838  -0.55942638    92.138476    92.138476    92.138476            0            0            0  0.036060589 
   18000    854042.95    320.42973    24.343619    954.18502    461.50175    1415.6868    1718.8948   -19.155345    279.88819   -200.58945    292.19533    369.89587            0            0     662.0912    -461.3223  -0.51237309    94.876773    94.876773    94.876773            0            0            0  0.033027537 
   19000    922825.53    312.67033     15.71657    931.07887    456.75311     1387.832    1599.3529   -17.156923    277.36045   -196.27147    279.13808    373.88649            0            0    653.02457     -456.475  -0.47418348    97.358349    97.358349    97.358349            0            0            0  0.030565837 
   20000    1003756.1    313.31253     1.563871    932.99121    478.32402    1411.3152    1434.2084   -14.707066    273.99766   -192.67159    285.53769    385.45792            0            0    670.99561   -451.96218  -0.43595115    100.12505    100.12505    100.12505            0            0            0  0.028101383 
   21000    1084965.2    313.98566    23.776358    934.99568    437.25012    1372.2458    1748.4616    -13.99384    269.74924   -197.61812    271.40828    363.45996            0            0    634.86824   -453.37352  -0.40332044    102.75554    102.75554    102.75554            0            0            0   0.02599801 
   22000    1175419.2    306.16379    2.7196623    911.70349    432.98498    1344.6885    1391.3097   -9.0376959     268.4091   -190.75999    275.14485    348.60012            0            0    623.74497   -450.13139  -0.37228303    105.53526    105.53526    105.53526            0            0            0  0.023997341 
   23000    1268378.5    300.62982   -1.1796345    895.22428    480.35556    1375.5798     1353.759   -8.8481815    269.44617   -184.84564    307.82004    357.38116            0            0     665.2012   -445.44363  -0.34499845    108.24711    108.24711    108.24711            0            0            0  0.022238578 
   24000    1368647.1    310.49919    5.1312813    924.61357    456.92233    1381.5359    1483.9579   -8.0906339    268.18264   -182.25186    274.84887    364.32532            0            0    639.17419   -442.34387  -0.31972348    111.02748    111.02748    111.02748            0            0            0  0.020609355 
   25000    1473914.4    318.51877   -13.875118    948.49451    485.36444     1433.859    1135.6059   -8.9067097      267.083   -180.20179    305.14912    360.41711            0            0    665.56623   -438.37808  -0.29688877    113.80397    113.80397    113.80397            0            0            0  0.019137431 
   26000    1575416.2    321.41738     3.597208    957.12609    513.72271    1470.8488    1553.4976   -8.2150137    266.22396   -174.45712    305.47573     382.7041            0            0    688.17983   -432.46607  -0.27776065    116.35859    116.35859    116.35859            0            0            0  0.017904434 
   27000    1683201.1    326.62138    11.384149    972.62269    475.39806    1448.0207    1727.4761    -7.392902    266.28019   -170.50716    282.83181    363.07341            0            0    645.90521   -429.39445  -0.25997406     118.9539     118.9539     118.9539            0            0            0  0.016757911 
   28000    1791649.9    331.54566   0.26549121    987.28635     474.4163    1461.7027    1468.6398   -7.7205454    263.32391   -172.59211    277.34901     369.6594            0            0    647.00841   -428.19547   -0.2442378    121.45565    121.45565    121.45565            0            0            0  0.015743553 
   29000    1903651.4    302.85963    1.6113327    901.86428    504.11232    1405.9766    1450.7117   -9.1184514    263.97745   -174.41863    317.27394    361.25701            0            0    678.53095   -429.27763  -0.22986804    123.93552    123.93552    123.93552            0            0            0  0.014817279 
   30000    2021528.9    292.17497    3.0933336    870.04718    508.61391    1378.6611    1469.8585   -6.4215039    264.33305   -169.72781    302.95543    375.38628            0            0    678.34171   -427.63935   -0.2164642    126.44257    126.44257    126.44257            0            0            0  0.013953268 
   31000    2132058.7    316.41881   -9.9447499    942.24119     507.3728     1449.614     1140.393   -6.5399787    263.25462   -169.44427    319.14774    357.66933            0            0    676.81707   -426.15892  -0.20524229    128.70627    128.70627    128.70627            0            0            0  0.013229905 
   32000    2259377.8    320.47926   -3.3495167    954.33251    508.80658    1463.1391    1352.7701   -5.6414106    264.30319   -168.99185    288.04196    389.75647            0            0    677.79843   -427.65362  -0.19367661    131.21887    131.21887    131.21887            0            0            0  0.012484382 
   33000    2382819.2     312.9696    3.0349023    931.97003    502.31399     1434.284    1539.7498   -7.2238558    262.20018   -168.96385    290.44856    380.82928            0            0    671.27784   -423.94017  -0.18364324    133.56634    133.56634    133.56634            0            0            0  0.011837631 
   34000    2509920.7    301.19318    1.0276092    896.90186    554.50184    1451.4037    1489.0189   -4.0819238    264.38488   -146.50557     305.3865    395.62091            0            0    701.00741   -406.80853   -0.1743436    135.90017    135.90017    135.90017            0            0            0  0.011238178 
   35000      2585423    300.04736    1.3291609    893.48981    522.11219     1415.602     1465.719   -4.6181583    264.40584   -144.55726    307.63971    359.02974            0            0    666.66945   -404.34494  -0.16925224    137.24943    137.24943    137.24943            0            0            0  0.010909988 
   36000    2634485.6    298.53927    7.1127663    888.99898    552.07054    1441.0695     1714.351   -5.5901712    264.76097   -144.38699     313.1922    383.26534            0            0    696.45754   -403.55779  -0.16610022    138.11217    138.11217    138.11217            0            0            0   0.01070681 
   37000    2733565.3    306.11981    2.1089945    911.57251    590.53196    1502.1045    1586.1822   -4.1221523    263.95437   -143.07382    332.89557    400.71021            0            0    733.60578   -402.90604  -0.16007981    139.82231    139.82231    139.82231            0            0            0  0.010318735 
   38000      2942011    303.74318   -2.2450745    904.49533    581.51155    1486.0069    1389.6792   -4.4416204    262.06718   -145.27609    330.39193    396.39572            0            0    726.78765   -402.90166  -0.14873793    143.28963    143.28963    143.28963            0            0            0 0.0095876374 
   39000    3140840.7    314.99181    6.6626211    937.99182     563.3038    1501.2956    1806.4832   -4.1744172    261.43992   -146.85581    312.47966    397.67996            0            0    710.15962   -404.12132  -0.13932213     146.4475     146.4475     146.4475            0            0            0 0.0089806959 
   40000    3203447.2     305.8525   -1.1936322    910.77653     535.5839    1446.3604    1390.5951   -4.1266856    262.57424   -147.66284    304.89949    378.34724            0            0    683.24674   -406.11039  -0.13659929    147.41416    147.41416    147.41416            0            0            0 0.0088051817 
   41000    3171206.4    301.52139    1.7762321    897.87922    514.57493    1412.4541    1494.6027   -3.5727542    262.23569   -148.70723    292.70621    370.57595            0            0    663.28216   -407.37017  -0.13798806    146.91794    146.91794    146.91794            0            0            0 0.0088947018 
   42000    2939198.6    303.89013    1.6337761    904.93292    536.38557    1441.3185    1511.3506   -3.8924667    262.74578   -150.64854      296.003    391.03112            0            0    687.03412   -409.50186  -0.14888025    143.24396    143.24396    143.24396            0            0            0 0.0095968115 
   43000    2725758.3    317.92068   -1.5071932    946.71351    537.54454    1484.2581    1424.3435   -3.7007809    261.85032   -151.42761    307.83092    381.14124            0            0    688.97216   -409.57715  -0.16053831    139.68908    139.68908    139.68908            0            0            0  0.010348289 
   44000    2708552.1    304.93112   -2.1691502    908.03281    553.92391    1461.9567    1376.2721   -2.7945832    263.00103   -150.77656    293.04382    411.65665            0            0    704.70048   -410.98301  -0.16155813    139.39453    139.39453    139.39453            0            0            0  0.010414027 
   45000    2761559.1    301.12182    2.1501448    896.68937    545.62236    1442.3117    1528.9078   -3.6896589     262.6751   -148.41863    304.29834    389.74265            0            0      694.041   -407.40407  -0.15845709    140.29799    140.29799    140.29799            0            0            0  0.010214134 
   46000    3007460.6    292.64227   -5.3535794     871.4387    545.08441    1416.5231    1181.7112   -3.5331158    261.91369   -146.53386    308.46717    383.15109            0            0    691.61827   -404.91443  -0.14550103    144.34441    144.34441    144.34441            0            0            0 0.0093789874 
   47000    3237422.5     307.5535   0.62426308    915.84181    541.66942    1457.5112    1486.9855   -3.5735058     262.8671   -143.95657    304.83375    380.79224            0            0    685.62599   -403.25017  -0.13516574    147.93348    147.93348    147.93348            0            0            0 0.0087127752 
   48000    3244284.3    313.58392  -0.80972332    933.79938    559.47151    1493.2709    1454.9592   -3.4426697    262.75966   -144.90056     332.8959    371.47618            0            0    704.37207   -404.21755  -0.13487986    148.03792    148.03792    148.03792            0            0            0 0.0086943475 
   49000    3138341.5     304.1504    2.5098136    905.70794    559.49852    1465.2065    1580.0794   -3.5853941    263.22848   -145.32699    299.93327    404.89225            0            0    704.82551   -404.97007  -0.13943308    146.40865    146.40865    146.40865            0            0            0 0.0089878475 
   50000    2947172.3    306.17354     2.286525    911.73253    537.63952    1449.3721    1547.6503   -3.0238265    262.79828   -145.49058    298.18754    384.94257            0            0    683.13011   -405.26503  -0.14847745    143.37338    143.37338    143.37338            0            0            0 0.0095708469 
   50262    2898124.2    319.56868   0.23862571    951.62096    506.70253    1458.3235    1468.4093   -3.6937943    262.88133   -148.19234    286.09684    368.79804            0            0    654.89487   -407.37988  -0.15099029    142.57356    142.57356    142.57356            0            0            0 0.0097328249 
Loop time of 61.9404 on 48 procs for 50000 steps with 1000 atoms

Performance: 69.745 ns/day, 0.344 hours/ns, 807.228 timesteps/s
32.3% CPU use with 48 MPI tasks x 1 OpenMP threads

MPI task timing breakdown:
Section |  min time  |  avg time  |  max time  |%varavg| %total
---------------------------------------------------------------
Pair    | 0.33042    | 0.4202     | 0.58001    |   8.8 |  0.68
Bond    | 0.14889    | 0.17592    | 0.21583    |   4.0 |  0.28
Kspace  | 14.271     | 16.661     | 18.564     |  24.4 | 26.90
Neigh   | 1.2508     | 1.72       | 2.0868     |  19.5 |  2.78
Comm    | 13.559     | 17.424     | 21.54      |  44.1 | 28.13
Output  | 0.057182   | 0.057885   | 0.064656   |   0.4 |  0.09
Modify  | 18.021     | 20.491     | 21.808     |  21.8 | 33.08
Other   |            | 4.99       |            |       |  8.06

Nlocal:    20.8333 ave 36 max 6 min
Histogram: 2 1 1 7 13 10 7 4 2 1
Nghost:    95.8125 ave 121 max 73 min
Histogram: 5 2 5 6 7 7 8 3 1 4
Neighs:    57.875 ave 112 max 11 min
Histogram: 2 3 6 11 7 8 2 4 3 2

Total # of neighbors = 2778
Ave neighs/atom = 2.778
Ave special neighs/atom = 4
Neighbor list builds = 4782
Dangerous builds = 0

unfix npt_density

fix reshape_box all deform 1 x final 0.0 36.6857 y final 0.0 36.6857 z final 0.0 36.6857 units box

run 100000
Ewald initialization ...
  using 12-bit tables for long-range coulomb (src/kspace.cpp:332)
  G vector (1/distance) = 0.0596969
  estimated absolute RMS force accuracy = 0.0373138
  estimated relative force accuracy = 0.000112369
  KSpace vectors: actual max1d max3d = 61 3 171
                  kxmax kymax kzmax  = 3 3 3
Per MPI rank memory allocation (min/avg/max) = 16.94 | 17.18 | 17.22 Mbytes
Step Volume Temp Press KinEng PotEng TotEng Enthalpy E_vdwl E_coul E_pair E_bond E_angle E_dihed E_impro E_mol E_long E_tail Lx Ly Lz Xy Xz Yz Density 
   50262    2898124.2    319.56868   0.40801619    951.62096    498.48908      1450.11    1467.3553   -3.6937943    146.86507   -156.40579    286.09684    368.79804            0            0    654.89487   -299.57707  -0.15099029    142.57356    142.57356    142.57356            0            0            0 0.0097328249 
   51000    2850730.6    319.56868    41.883991    951.62096    501.39641    1453.0174    3194.3435   -3.7401095    147.19226   -157.48161    290.07999    368.79804            0            0    658.87803   -300.93377  -0.15350052    141.79211    141.79211    141.79211            0            0            0 0.0098946336 
   52000    2787340.1    319.56868    99.635862    951.62096    550.54058    1502.1615    5552.4088   -3.7969647     147.4627   -159.15768    340.90023    368.79804            0            0    709.69826   -302.82342  -0.15699147    140.73323    140.73323    140.73323            0            0            0   0.01011966 
   53000    2724896.4    319.56868    159.12875    951.62096    651.30354    1602.9245    7926.6721   -3.8467189    147.11086   -161.50705    444.01256    368.79804            0            0     812.8106   -304.77119  -0.16058909    139.67435    139.67435    139.67435            0            0            0  0.010351563 
   54000    2663392.2    319.56868     220.4489    951.62096    804.71704     1756.338      10319.2   -3.8861334    147.16747   -163.49798    599.41699    368.79804            0            0    968.21502   -306.77932  -0.16429748    138.61547    138.61547    138.61547            0            0            0  0.010590605 
   55000    2602820.6    319.56868    283.67725    951.62096    1011.4295    1963.0505    12731.288   -3.9155279    148.28365   -164.48199    807.11351    368.79804            0            0    1175.9115   -308.85012  -0.16812093    137.55659    137.55659    137.55659            0            0            0  0.010837064 
   56000    2543174.4    319.56868    348.82063    951.62096      1269.15     2220.771    15158.385   -3.9310966    148.16696   -166.75016    1067.1021    368.79804            0            0    1435.9002   -310.98602  -0.17206394    136.49772    136.49772    136.49772            0            0            0  0.011091231 
   57000    2484446.5    319.56868    415.98656    951.62096    1579.3701    2530.9911    17603.475   -3.9313014    148.31013   -168.81072    1379.3828    368.79804            0            0    1748.1809   -313.18955  -0.17613123    135.43884    135.43884    135.43884            0            0            0  0.011353408 
   58000    2426629.7    319.56868    485.23966    951.62096    1941.8135    2893.4344     20066.02   -3.9138873    148.43708    -170.9402    1743.9556    368.79804            0            0    2112.7537    -315.4634  -0.18032773    134.37996    134.37996    134.37996            0            0            0  0.011623914 
   59000    2369716.9    319.56868    556.67339    951.62096    2357.1205    3308.7415    22547.313   -3.8742654    149.18656   -172.49804    2160.8205    368.79804            0            0    2529.6186   -317.81033  -0.18465861    133.32108    133.32108    133.32108            0            0            0  0.011903082 
   60000      2313701    319.56868    630.33069    951.62096     2824.047     3775.668    25044.889   -3.8093874    149.31413   -174.72854    2629.9775    368.79804            0            0    2998.7755   -320.23328  -0.18912929     132.2622     132.2622     132.2622            0            0            0  0.012191262 
   61000    2258574.9    319.56868    706.31395    951.62096    3343.3186    4294.9396    27560.213   -3.7155761    149.54486   -176.90603    3151.4266    368.79804            0            0    3520.2246   -322.73531  -0.19374546    131.20332    131.20332    131.20332            0            0            0   0.01248882 
   62000    2204331.4    319.56868    784.73295    951.62096    3915.7175    4867.3385    30094.865   -3.5877789    150.65916   -178.24826    3725.1678    368.79804            0            0    4093.9658   -325.31964  -0.19851308    130.14444    130.14444    130.14444            0            0            0  0.012796141 
   63000    2150963.5    319.56868    865.63995    951.62096    4540.0114    5491.6323    32646.408   -3.4194287    151.42135    -179.9877     4351.201    368.79804            0            0    4719.9991   -327.98963  -0.20343842    129.08557    129.08557    129.08557            0            0            0  0.013113628 
   64000      2098464    319.56868    949.15734    951.62096    5217.1233    6168.7442    35216.703   -3.2060267     152.7537   -181.20115    5029.5264    368.79804            0            0    5398.3244   -330.74882  -0.20852806    128.02669    128.02669    128.02669            0            0            0  0.013441706 
   65000    2046825.7    319.56868    1035.3759    951.62096    5946.8035    6898.4245    37805.278   -2.9398589    154.40246   -182.13835    5760.1439    368.79804            0            0    6128.9419   -333.60095   -0.2137889    126.96781    126.96781    126.96781            0            0            0  0.013780819 
   66000    1996041.6    319.56868    1124.3643    951.62096    6728.0318    7679.6527    40410.144   -2.6103548     155.3406   -183.81965    6543.0534    368.79804            0            0    6911.8514   -336.54989  -0.21922821    125.90893    125.90893    125.90893            0            0            0  0.014131436 
   67000    1946104.6    319.56868    1216.2104    951.62096    7560.3015    8511.9225    43030.331   -2.2098448    155.05806   -186.75156     7378.255    368.79804            0            0    7747.0531   -339.59977   -0.2248536    124.85005    124.85005    124.85005            0            0            0  0.014494049 
   68000    1897007.4    319.56868    1311.1312    951.62096    8446.6238    9398.2448    45671.879   -1.7277787    156.55969   -187.92299    8265.7488    368.79804            0            0    8634.5468    -342.7549  -0.23067312    123.79117    123.79117    123.79117            0            0            0  0.014869175 
   69000      1848743    319.56868    1409.1341    951.62096    9383.8655    10335.486    48328.589   -1.1509412    156.70359   -190.46716    9205.5346    368.79804            0            0    9574.3326   -346.01981  -0.23669521    122.73229    122.73229    122.73229            0            0            0  0.015257358 
   70000    1801304.3    319.56868    1510.4116    951.62096    10373.944    11325.565    51004.342  -0.46579373    157.39819   -192.46688    10197.613    368.79804            0            0    10566.411   -349.39928  -0.24292876    121.67341    121.67341    121.67341            0            0            0  0.015659172 
   71000    1754684.2    319.56868    1615.1035    951.62096    11417.084    12368.705    53699.639   0.34336859    158.85874   -193.69623    11241.983    368.79804            0            0    11610.781   -352.89833  -0.24938313    120.61454    120.61454    120.61454            0            0            0  0.016075221 
   72000    1708875.4    319.56868     1723.264    951.62096    12511.141    13462.762    56410.284     1.300719    158.92026   -196.30129    12338.645    368.79804            0            0    12707.443   -356.52227  -0.25606819    119.55566    119.55566    119.55566            0            0            0  0.016506139 
   73000    1663870.9    319.56868    1835.1454    951.62096    13658.889     14610.51    59141.874    2.4237657    160.34492   -197.50798    13487.599    368.79804            0            0    13856.397   -360.27667  -0.26299433    118.49678    118.49678    118.49678            0            0            0  0.016952598 
   74000    1619663.6    319.56868    1950.8708    951.62096    14859.548    15811.169    61892.947    3.7388732    162.33319   -198.09534    14688.845    368.79804            0            0    15057.643   -364.16741  -0.27017253     117.4379     117.4379     117.4379            0            0            0  0.017415304 
   75000    1576246.4    319.56868    2070.5145    951.62096    16111.097    17062.718    64659.574    5.2749615     162.8414   -200.08434    15942.384    368.79804            0            0    16311.182   -368.20071  -0.27761435    116.37902    116.37902    116.37902            0            0            0  0.017895004 
   76000    1533612.1    319.56868    2194.3269    951.62096    17415.488    18367.109    67445.774    7.0666413    163.79285   -201.52361    17248.214    368.79804            0            0    17617.012    -372.3831  -0.28533201    115.32014    115.32014    115.32014            0            0            0  0.018392484 
   77000    1491753.5    319.56868    2322.4459    951.62096    18771.802    19723.423    70249.848    9.1540575    164.23455    -203.3329    18606.337    368.79804            0            0    18975.135    -376.7215  -0.29333842    114.26126    114.26126    114.26126            0            0            0  0.018908576 
   78000    1450663.7    319.56868    2455.1526    951.62096    20182.061    21133.682    73075.975    11.579217     166.1561    -203.4879    20016.751    368.79804            0            0    20385.549   -381.22322  -0.30164719    113.20239    113.20239    113.20239            0            0            0  0.019444159 
   79000    1410335.4    319.56868    2592.4756    951.62096    21642.593    22594.214    75917.017    14.396397    165.83691   -205.66266    21479.458    368.79804            0            0    21848.256   -385.89597  -0.31027274    112.14351    112.14351    112.14351            0            0            0  0.020000161 
   80000    1370761.5    319.56868    2734.8753    951.62096    23158.583    24110.204    78783.507    17.665833    168.40989   -204.67221    22994.457    368.79804            0            0    23363.255   -390.74793  -0.31923031    111.08463    111.08463    111.08463            0            0            0  0.020577566 
   81000      1331935    319.56868    2882.4019    951.62096    24726.372    25677.993    81668.376    21.457362    170.15653   -204.17381    24561.748    368.79804            0            0    24930.546   -395.78771  -0.32853603    110.02575    110.02575    110.02575            0            0            0  0.021177412 
   82000    1293848.6    319.56868    3035.2942    951.62096     26345.98    27297.601    84571.946    25.853781    171.02216   -204.14853    26181.331    368.79804            0            0    26550.129   -401.02447  -0.33820699    108.96687    108.96687    108.96687            0            0            0  0.021800801 
   83000    1256495.2    319.56868     3193.973    951.62096     28020.53    28972.151     87500.73     30.94647    174.04708   -201.47434    27853.206    368.79804            0            0    28222.004   -406.46789  -0.34826127    107.90799    107.90799    107.90799            0            0            0  0.022448899 
   84000    1219867.8    319.56868    3358.4498    951.62096    29745.091    30696.712    90445.285    36.848204    174.19931   -201.08073    29577.373    368.79804            0            0    29946.171   -412.12824  -0.35871806    106.84911    106.84911    106.84911            0            0            0  0.023122943 
   85000    1183959.3    319.56868    3529.2509    951.62096    31523.939     32475.56    93414.541     43.68349    175.64157   -198.69134    31353.833    368.79804            0            0    31722.631    -418.0164  -0.36959771    105.79024    105.79024    105.79024            0            0            0  0.023824245 
   86000    1148762.4    319.56868    3706.6412    951.62096    33356.078    34307.699     96406.99    51.605438    177.23463   -195.30385    33182.584    368.79804            0            0    33551.382   -424.14392   -0.3809218    104.73136    104.73136    104.73136            0            0            0  0.024554195 
   87000      1114270    319.56868    3890.9501    951.62096     35241.27    36192.891    99422.719    60.782746    178.58458   -191.15573    35063.628    368.79804            0            0    35432.426   -430.52306  -0.39271327    103.67248    103.67248    103.67248            0            0            0  0.025314273 
   88000    1080475.1    319.56868    4082.6827    951.62096    37181.649     38133.27    102466.64    71.424064    181.63056   -184.11223    36996.963    368.79804            0            0    37365.761   -437.16685  -0.40499648     102.6136     102.6136     102.6136            0            0            0  0.026106048 
   89000    1047370.5    319.56868    4282.1278    951.62096     39175.31    40126.931    105535.68    83.765786    184.24423   -176.07912    38982.591    368.79804            0            0    39351.389   -444.08914  -0.41779734    101.55472    101.55472    101.55472            0            0            0   0.02693119 
   90000    1014949.2    319.56868    4489.7208    951.62096    41222.177    42173.798    108630.61    98.087537    186.08498   -167.13214    41020.511    368.79804            0            0    41389.309   -451.30465  -0.43114339    100.49584    100.49584    100.49584            0            0            0  0.027791476 
   91000    983203.85    319.56868    4705.9735    951.62096    43322.729     44274.35     111753.4    114.71195     187.3254   -156.79173    43110.723    368.79804            0            0    43479.521   -458.82909  -0.44506399    99.436964    99.436964    99.436964            0            0            0  0.028688796 
   92000    952127.48    319.56868    4931.7762    951.62096    45477.038    46428.659    114910.33    134.02907     190.3197   -144.98705    45253.227    368.79804            0            0    45622.025   -469.33583  -0.45959037    98.378086    98.378086    98.378086            0            0            0  0.029625166 
   93000    921712.94    319.56868    5167.5035    951.62096    47691.802    48643.423    118106.23    156.48898     195.9477   -125.01839    47448.023    368.79804            0            0    47816.821   -477.45508  -0.47475587    97.319207    97.319207    97.319207            0            0            0  0.030602733 
   94000    891953.09    319.56868     5413.779    951.62096    49961.515    50913.136    121336.77    182.62693    200.91548   -102.39372    49695.111    368.79804            0            0    50063.909   -485.93612    -0.490596    96.260328    96.260328    96.260328            0            0            0  0.031623787 
   95000    862840.82    319.56868    5671.4723    951.62096    52287.874    53239.495    124607.31    213.07238    206.31191   -75.415018    51994.491    368.79804            0            0    52363.289   -494.79931  -0.50714872     95.20145     95.20145     95.20145            0            0            0  0.032690775 
   96000    834369.01    319.56868    5941.3731    951.62096    54670.307    55621.928    127919.03    248.57207    210.83979    -44.65448    54346.163    368.79804            0            0    54714.962   -504.06635  -0.52445455    94.142571    94.142571    94.142571            0            0            0  0.033806307 
   97000    806530.52    319.56868    6224.4928    951.62096    57109.671    58061.292    131276.39    290.00847     214.4966   -9.2553883    56750.128    368.79804            0            0    57118.926   -513.76046   -0.5425568    93.083692    93.083692    93.083692            0            0            0  0.034973177 
   98000    779318.24    319.56868    6522.2133    951.62096    59609.536    60561.157    134689.74    338.42825    219.83132    34.353076    59206.384    368.79804            0            0    59575.183    -523.9065  -0.56150183    92.024814    92.024814    92.024814            0            0            0  0.036194373 
   99000    752725.05    319.56868     6835.363    951.62096    62165.166    63116.787    138153.51    395.07758    220.88812    81.434647    61714.933    368.79804            0            0    62083.731   -534.53106  -0.58133926    90.965935    90.965935    90.965935            0            0            0  0.037473092 
  100000    726743.81    319.56868    7166.3353    951.62096    64787.196    65738.817    141693.46    461.43705    226.84945    142.62389    64275.774    368.79804            0            0    64644.572   -545.66262  -0.60212226    89.907057    89.907057    89.907057            0            0            0  0.038812763 
  101000    701367.41    319.56868    7516.2882    951.62096    67469.821    68421.442    145303.48    539.28129    230.16711    212.11666    66888.907    368.79804            0            0    67257.705   -557.33174  -0.62390784    88.848178    88.848178    88.848178            0            0            0   0.04021706 
  102000    676588.72    319.56868    7887.6821    951.62096    70218.229     71169.85    149000.39    630.72372    233.94655    295.09905    69554.332    368.79804            0            0     69923.13   -569.57121   -0.6467572    87.789299    87.789299    87.789299            0            0            0  0.041689928 
  103000    652400.61    319.56868    8283.2364    951.62096    73036.137    73987.758    152799.39    738.30252    239.40368    395.28995    72272.049    368.79804            0            0    72640.847   -582.41625  -0.67073607    86.730421    86.730421    86.730421            0            0            0  0.043235605 
  104000    628795.98    319.56868     8705.795    951.62096    75924.078    76875.699    156710.84    865.05992    244.06717    513.22236    75042.058    368.79804            0            0    75410.856   -595.90472  -0.69591511    85.671542    85.671542    85.671542            0            0            0  0.044858644 
  105000    605767.68    319.56868    9159.5215    951.62096     78889.67    79841.291    160761.09    1014.6527    251.93789     656.5132    77864.359    368.79804            0            0    78233.157   -610.07736  -0.72237037    84.612664    84.612664    84.612664            0            0            0  0.046563948 
  106000    583308.61    319.56868    9648.1894    951.62096    81930.516    82882.137    164958.88    1191.5001    256.24355     822.7656    80738.952    368.79804            0            0     81107.75   -624.97804  -0.75018372    83.553785    83.553785    83.553785            0            0            0  0.048356795 
  107000    561411.63    319.56868    10178.042    951.62096    85058.347    86009.968    169343.84    1400.9352    263.43056    1023.7117    83665.838    368.79804            0            0    84034.636   -640.65404  -0.77944346    82.494906    82.494906    82.494906            0            0            0  0.050242877 
  108000    540069.62    319.56868    10755.542    951.62096    88276.871    89228.492    173943.02    1649.4163    270.79803    1263.0579    86645.015    368.79804            0            0    87013.813   -657.15638  -0.81024485    81.436028    81.436028    81.436028            0            0            0  0.052228332 
  109000    519275.46    319.56868    11389.819    951.62096     91599.87    92551.491    178807.73    1944.7807     284.3465     1554.587    89676.485    368.79804            0            0    90045.283   -674.54019  -0.84269075    80.377149    80.377149    80.377149            0            0            0  0.054319793 
  110000    499022.02    319.56868    12089.773    951.62096    95025.389     95977.01    183963.05    2296.5721    292.63792     1896.345    92760.246    368.79804            0            0    93129.044   -692.86502  -0.87689241    79.318271    79.318271    79.318271            0            0            0   0.05652443 
  111000    479302.18    319.56868    12869.308    951.62096    98572.398    99524.019    189482.17    2716.4298    303.06565    2307.3001      95896.3    368.79804            0            0    96265.098   -712.19535  -0.91297023    78.259392    78.259392    78.259392            0            0            0  0.058850003 
  112000    460108.83    319.56868    13744.348    951.62096    102252.77    103204.39    195431.92    3218.5919    313.33196    2799.3228    99084.646    368.79804            0            0    99453.444   -732.60103  -0.95105462    77.200513    77.200513    77.200513            0            0            0   0.06130492 
  113000    441434.82    319.56868    14735.392    951.62096    106084.06    107035.68    201900.28    3820.5129    323.62591    3389.9809    102325.28    368.79804            0            0    102694.08   -754.15782  -0.99128705    76.141635    76.141635    76.141635            0            0            0  0.063898301 
  114000    423273.05    319.56868    15868.766    951.62096    110090.02    111041.64    208999.58     4543.659    336.29412    4103.0051    105618.21    368.79804            0            0    105987.01   -776.94794   -1.0338211    75.082756    75.082756    75.082756            0            0            0  0.066640045 
  115000    405616.39    319.56868    17176.435    951.62096    114290.19    115241.81       216849    5414.5076    344.51056    4957.9574    108963.44    368.79804            0            0    109332.23   -801.06082   -1.0788238    74.023878    74.023878    74.023878            0            0            0  0.069540916 
  116000    388457.71    319.56868    18701.575    951.62096    118722.62    119674.24    225623.47    6465.8011    353.66242    5992.8698    112360.95    368.79804            0            0    112729.75   -826.59374   -1.1264769    72.964999    72.964999    72.964999            0            0            0  0.072612628 
  117000    371789.89    319.56868    20498.453    951.62096    123426.87    124378.49    235524.67     7738.141    362.82465     7247.313    115810.76    368.79804            0            0    116179.55    -853.6527   -1.1769783     71.90612     71.90612     71.90612            0            0            0  0.075867946 
  118000     355605.8    319.56868    22638.293    951.62096    128458.08     129409.7    246815.19    9282.0565    376.72124    8776.4244    119312.86    368.79804            0            0    119681.65   -882.35337   -1.2305441    70.847242    70.847242    70.847242            0            0            0  0.079320795 
  119000    339898.33    319.56868    25213.105    951.62096    133882.17    134833.79    259816.88     11160.61    398.34086    10646.129    122867.25    368.79804            0            0    123236.04   -912.82207   -1.2874103    69.788363    69.788363    69.788363            0            0            0  0.082986388 
  120000    324660.35    319.56868    28340.056    951.62096    139767.69    140719.31    274904.89    13452.786    417.37469    12924.964    126473.93    368.79804            0            0    126842.73   -945.19699   -1.3478351    68.729484    68.729484    68.729484            0            0            0  0.086881366 
  121000    309884.74    319.56868    32175.524    951.62096    146215.23    147166.86    292579.35     16257.82    435.34355    15713.534     130132.9    368.79804            0            0     130501.7   -979.62948   -1.4121012    67.670606    67.670606    67.670606            0            0            0  0.091023955 
  122000    295564.37    319.56868    36924.921    951.62096    153349.25    154300.87    313465.86     19700.82    451.74687    19136.281    133844.17    368.79804            0            0    134212.97   -1016.2856   -1.4805188    66.611727    66.611727    66.611727            0            0            0  0.095434151 
  123000    281692.13    319.56868    42860.911    951.62096    161330.85    162282.47    338363.27    23940.111    469.55683    23354.321    137607.73    368.79804            0            0    137976.53   -1055.3476   -1.5534287    65.552849    65.552849    65.552849            0            0            0   0.10013391 
  124000    268260.87    319.56868    50345.366    951.62096     170361.8    171313.42    368280.09    29176.778    489.66206    28569.424    141423.58    368.79804            0            0    141792.38   -1097.0161   -1.6312055     64.49397     64.49397     64.49397            0            0            0   0.10514741 
  125000    255263.49    319.56868    59861.096    951.62096    180696.55    181648.17    404496.44     35667.21    510.33516    35036.033    145291.72    368.79804            0            0    145660.52   -1141.5121   -1.7142624    63.435091    63.435091    63.435091            0            0            0   0.11050125 
  126000    242692.87    319.56868    72058.173    951.62096    192667.22    193618.84    448663.44    43739.576    535.76355     43086.26    149212.16    368.79804            0            0    149580.96   -1189.0797   -1.8030552    62.376213    62.376213    62.376213            0            0            0   0.11622482 
  127000    230541.86    319.56868    87814.733    951.62096    206702.29    207653.91    502906.06    53815.678    572.91247    53148.602    153184.89    368.79804            0            0    153553.68   -1239.9882   -1.8980875    61.317334    61.317334    61.317334            0            0            0    0.1223506 
  128000    218803.36    319.56868     108315.3    951.62096    223330.82    224282.44    569919.02    66439.956     606.6939    65752.114     157209.9    368.79804            0            0     157578.7   -1294.5363   -1.9999173    60.258456    60.258456    60.258456            0            0            0   0.12891454 
  129000    207470.24    319.56868    135183.37    951.62096    243263.52    244215.14    653244.96    82318.246    642.31783    81607.508    161287.22    368.79804            0            0    161656.01    -1353.055   -2.1091633    59.199577    59.199577    59.199577            0            0            0   0.13595654 
  130000    196535.38    319.56868     170641.1    951.62096    267409.26    268360.89     757463.8    102369.77    669.78685    101623.65    165416.82    368.79804            0            0    165785.62   -1415.9124   -2.2265133    58.140698    58.140698    58.140698            0            0            0   0.14352091 
  131000    185991.64    319.56868    217764.68    951.62096    296984.85    297936.47    888622.59    127797.31    703.54388    127017.34    169598.72    368.79804            0            0    169967.51    -1483.518   -2.3527327     57.08182     57.08182     57.08182            0            0            0     0.151657 
  132000    175831.92    319.56868    280817.15    951.62096     333567.5    334519.12    1054626.4    160182.41    739.71678     159365.8     173832.9    368.79804            0            0     174201.7   -1556.3287   -2.4886757    56.022941    56.022941    56.022941            0            0            0   0.16041988 
  133000    166049.08    319.56868    365757.03    951.62096    379250.89    380202.51      1265940     201615.2    782.36512    200762.71    178119.38    368.79804            0            0    178488.18   -1634.8554   -2.6352969    54.964063    54.964063    54.964063            0            0            0   0.16987107 
  134000       156636    319.56868    480957.42    951.62096    436806.74    437758.36    1536445.7    254872.52    826.93624    253979.79    182458.15    368.79804            0            0    182826.95   -1719.6703   -2.7936656    53.905184    53.905184    53.905184            0            0            0   0.18007951 
  135000    147585.57    319.56868    638270.99    951.62096    509944.47    510896.09    1884700.4    323663.82    874.05391    322726.46    186849.22    368.79804            0            0    187218.02   -1811.4155   -2.9649825    52.846305    52.846305    52.846305            0            0            0   0.19112258 
  136000    138890.65    319.56868    854591.19    951.62096    603654.02    604605.64    2335646.4    412972.57    930.88705    411992.64    191292.57    368.79804            0            0    191661.37    -1910.814   -3.1505982    51.787427    51.787427    51.787427            0            0            0   0.20308736 
  137000    130544.11    319.56868    1154155.9    951.62096    724662.08     725613.7    2922955.6    529533.64    990.09285    528505.06    195788.22    368.79804            0            0    196157.02   -2018.6806   -3.3520364    50.728548    50.728548    50.728548            0            0            0   0.21607205 
  138000    122538.85    319.56868    1572017.7    951.62096    882128.13    883079.75      3692438    682505.07    1054.0308    681423.17    200336.16    368.79804            0            0    200704.96   -2135.9371   -3.5710194     49.66967     49.66967     49.66967            0            0            0   0.23018769 
  139000    114867.74    319.56868      2159257    951.62096    1088590.4    1089542.1    4706790.1    884420.15    1128.7354    883285.25     204936.4    368.79804            0            0    205305.19    -2263.628   -3.8094999    48.610791    48.610791    48.610791            0            0            0   0.24556012 
  140000    107523.64    319.56868    2990907.2    951.62096    1361317.3    1362268.9    6052376.2    1152546.7    1215.7935    1151359.5    209588.92    368.79804            0            0    209957.72   -2402.9406   -4.0696969    47.551912    47.551912    47.551912            0            0            0    0.2623324 
  141000    100499.44    319.56868    4178110.6    951.62096    1724247.2    1725198.9    7848977.5    1510842.6    1297.3586    1509584.7    214293.74    368.79804            0            0    214662.53   -2555.2282   -4.3541398    46.493034    46.493034    46.493034            0            0            0   0.28066758 
  142000     93788.02    319.56868    5887007.2    951.62096    2210892.2    2211843.8     10264104    1992791.6    1403.0008    1991472.5    219050.85    368.79804            0            0    219419.64   -2722.0377   -4.6657198    45.434155    45.434155    45.434155            0            0            0     0.300752 
  143000    87382.248    319.56868    8368135.4    951.62096    2868372.9    2869324.5     13533513      2645550    1498.9524    2644143.9    223860.25    368.79804            0            0    224229.04   -2905.1425   -5.0077519    44.375276    44.375276    44.375276            0            0            0   0.32279937 
  144000    81275.004    319.56868     12003104    951.62096    3763666.3    3764617.9     17992048    3536063.9    1618.2791    3534575.6    228721.94    368.79804            0            0    229090.74   -3106.5829   -5.3840492    43.316398    43.316398    43.316398            0            0            0   0.34705547 
  145000    75459.165    319.56868     17378920    951.62096    4992599.9    4993551.5     24118957    4760174.1    1749.7729    4758595.2    233635.92    368.79804            0            0    234004.72   -3328.7133   -5.7990123    42.257519    42.257519    42.257519            0            0            0   0.37380397 
  146000    69927.606    319.56868     25408227    951.62096    6693589.7    6694541.3     32606420    6456302.4    1890.5753    6454618.7     238602.2    368.79804            0            0       238971   -3574.2605   -6.2577378    41.198641    41.198641    41.198641            0            0            0   0.40337338 
  147000    64673.204    319.56868     37525829    951.62096    9068421.1    9069372.7     44463448    8826226.8    2051.0858    8824431.5    243620.77    368.79804            0            0    243989.57   -3846.3945   -6.7661503    40.139762    40.139762    40.139762            0            0            0   0.43614562 
  148000    59688.837    319.56868     56013927    951.62096     12414088     12415040     61175189     12166957    2219.9047     12165028    248691.63    368.79804            0            0    249060.43   -4148.8142   -7.3311635    39.080883    39.080883    39.080883            0            0            0   0.47256634 
  149000     54967.38    319.56868     84547686    951.62096     17172298     17173249     84950298     16920183    2417.2646     16918114    253814.78    368.79804            0            0    254183.58   -4485.8542   -7.9608783    38.022005    38.022005    38.022005            0            0            0   0.51315771 
  150000     50501.71    319.56868 1.2912278e+08    951.62096     24007041     24007993 1.1910894e+08     23749895    2650.0335     23747682    258990.23    368.79804            0            0    259359.03   -4862.6149   -8.6648278    36.963126    36.963126    36.963126            0            0            0   0.55853425 
  150262    49373.104    319.56868 1.4456457e+08    951.62096     26256392     26257344 1.3035194e+08     25997927    2710.0316     25995669    260354.84    368.79804            0            0    260723.64   -4968.6204   -8.8628947      36.6857      36.6857      36.6857            0            0            0   0.57130164 
Loop time of 69.488 on 48 procs for 100000 steps with 1000 atoms

Performance: 124.338 ns/day, 0.193 hours/ns, 1439.097 timesteps/s
30.3% CPU use with 48 MPI tasks x 1 OpenMP threads

MPI task timing breakdown:
Section |  min time  |  avg time  |  max time  |%varavg| %total
---------------------------------------------------------------
Pair    | 0.23802    | 1.0902     | 2.1383     |  31.6 |  1.57
Bond    | 0.0786     | 0.25872    | 0.4904     |  13.9 |  0.37
Kspace  | 19.436     | 23.42      | 26.563     |  41.0 | 33.70
Neigh   | 0.09198    | 0.12557    | 0.1561     |   5.7 |  0.18
Comm    | 25.444     | 31.523     | 42.226     |  76.7 | 45.36
Output  | 0.1119     | 0.11769    | 0.12704    |   0.8 |  0.17
Modify  | 0.1428     | 0.19729    | 0.37121    |   9.7 |  0.28
Other   |            | 12.76      |            |       | 18.36

Nlocal:    20.8333 ave 36 max 6 min
Histogram: 2 1 1 6 16 8 6 5 2 1
Nghost:    1263.23 ave 1307 max 1208 min
Histogram: 1 2 4 7 5 9 9 4 2 5
Neighs:    2926.4 ave 5650 max 863 min
Histogram: 2 1 4 16 11 5 6 2 0 1

Total # of neighbors = 140467
Ave neighs/atom = 140.467
Ave special neighs/atom = 4
Neighbor list builds = 354
Dangerous builds = 0
# >>>>>>>>>  Equilibration run <<<<<<<<<<<<<<<<<<<<<<<<<<<<<<<<<<

fix             NVT_equib all nvt temp ${simulationTemp} ${simulationTemp} 100
fix             NVT_equib all nvt temp 310 ${simulationTemp} 100
fix             NVT_equib all nvt temp 310 310 100

print           "Step Density Temperature Pressure KinEng PotEng TotEng" file Properties_equib_DCM.txt
Step Density Temperature Pressure KinEng PotEng TotEng
fix             PRINT_equib all print ${printfreq} "$(v_step) $(v_density) $(v_temp) $(v_press) $(v_pe) $(v_ke) $(v_etotal) $(v_enthalpy)" append Properties_equib_DCM.txt title ""
fix             PRINT_equib all print 1000 "$(v_step) $(v_density) $(v_temp) $(v_press) $(v_pe) $(v_ke) $(v_etotal) $(v_enthalpy)" append Properties_equib_DCM.txt title ""
# The 'print' and fix print' commands as used above will create a file named 'Properties_equib.txt' which allows you to quickly make plots to test for equilibration


run             ${NVT_equib}
run             100000
Ewald initialization ...
  using 12-bit tables for long-range coulomb (src/kspace.cpp:332)
  G vector (1/distance) = 0.118121
  estimated absolute RMS force accuracy = 0.0334388
  estimated relative force accuracy = 0.0001007
  KSpace vectors: actual max1d max3d = 61 3 171
                  kxmax kymax kzmax  = 3 3 3
Per MPI rank memory allocation (min/avg/max) = 16.96 | 17.21 | 17.25 Mbytes
Step Volume Temp Press KinEng PotEng TotEng Enthalpy E_vdwl E_coul E_pair E_bond E_angle E_dihed E_impro E_mol E_long E_tail Lx Ly Lz Xy Xz Yz Density 
  150262    49373.104    319.56868 1.4461347e+08    951.62096     26267141     26268092 1.303979e+08     26006937    1127.3943     26006412    260360.06    368.79804            0            0    260728.86   -1652.5598   -8.8628947      36.6857      36.6857      36.6857            0            0            0   0.57130164 
ERROR on proc 0: Bond atoms 563 561 missing on proc 0 at step 150263 (src/ntopo_bond_all.cpp:63)
Last command: run             ${NVT_equib}
