DCM_octanol_25p.data - created by mBuild; units = real

2100 atoms
1900 bonds
3350 angles
3300 dihedrals
0 impropers

9 atom types
10 bond types
17 angle types
15 dihedral types

0.000000 40.000000 xlo xhi
0.000000 40.000000 ylo yhi
0.000000 40.000000 zlo zhi

Masses

1	12.010780	# opls_135
2	12.010780	# opls_136
3	1.007947	# opls_140
4	35.453200	# opls_151
5	12.010780	# opls_152
6	1.007947	# opls_153
7	15.999430	# opls_154
8	1.007947	# opls_155
9	12.010780	# opls_157

Pair Coeffs # lj
#	epsilon (kcal/mol)		sigma (Angstrom)
1	0.06600		3.50000		# opls_135
2	0.06600		3.50000		# opls_136
3	0.03000		2.50000		# opls_140
4	0.30000		3.40000		# opls_151
5	0.06600		3.50000		# opls_152
6	0.03000		2.50000		# opls_153
7	0.17000		3.12000		# opls_154
8	0.00000		10.00000		# opls_155
9	0.06600		3.50000		# opls_157

Bond Coeffs # harmonic
#	k(kcal/mol/angstrom^2)		req(angstrom)
1	245.0		1.781		# opls_151	opls_152
2	340.0		1.09		# opls_152	opls_153
3	268.0		1.529		# opls_135	opls_136
4	268.0		1.529		# opls_136	opls_136
5	268.0		1.529		# opls_136	opls_157
6	320.0		1.41		# opls_154	opls_157
7	340.0		1.09		# opls_135	opls_140
8	340.0		1.09		# opls_136	opls_140
9	340.0		1.09		# opls_140	opls_157
10	553.0		0.945		# opls_154	opls_155

Angle Coeffs # harmonic
#	k(kcal/mol/rad^2)		theteq(deg)
1	78.0		111.70000	# opls_151	opls_152	opls_151
2	51.0		107.60000	# opls_151	opls_152	opls_153
3	33.0		107.80000	# opls_153	opls_152	opls_153
4	58.35		112.70000	# opls_135	opls_136	opls_136
5	37.5		110.70000	# opls_135	opls_136	opls_140
6	37.5		110.70000	# opls_136	opls_135	opls_140
7	58.35		112.70000	# opls_136	opls_136	opls_136
8	37.5		110.70000	# opls_136	opls_136	opls_140
9	58.35		112.70000	# opls_136	opls_136	opls_157
10	50.0		109.50000	# opls_136	opls_157	opls_154
11	37.5		110.70000	# opls_136	opls_157	opls_140
12	37.5		110.70000	# opls_140	opls_136	opls_157
13	55.0		108.50000	# opls_155	opls_154	opls_157
14	35.0		109.50000	# opls_140	opls_157	opls_154
15	33.0		107.80000	# opls_140	opls_135	opls_140
16	33.0		107.80000	# opls_140	opls_136	opls_140
17	33.0		107.80000	# opls_140	opls_157	opls_140

Dihedral Coeffs # opls
#	f1(kcal/mol)	f2(kcal/mol)	f3(kcal/mol)	f4(kcal/mol)
1	1.30000	-0.05000		0.20000		-0.00000	# opls_135	opls_136	opls_136	opls_136
2	-0.00000	-0.00000		0.30000		-0.00000	# opls_135	opls_136	opls_136	opls_140
3	1.30000	-0.05000		0.20000		-0.00000	# opls_136	opls_136	opls_136	opls_136
4	-0.00000	-0.00000		0.30000		-0.00000	# opls_136	opls_136	opls_136	opls_140
5	-0.00000	-0.00000		0.30000		-0.00000	# opls_136	opls_136	opls_135	opls_140
6	1.30000	-0.05000		0.20000		-0.00000	# opls_136	opls_136	opls_136	opls_157
7	1.71100	-0.50000		0.66300		-0.00000	# opls_136	opls_136	opls_157	opls_154
8	-0.00000	-0.00000		0.30000		-0.00000	# opls_136	opls_136	opls_157	opls_140
9	-0.35600	-0.17400		0.49200		-0.00000	# opls_136	opls_157	opls_154	opls_155
10	-0.00000	-0.00000		0.30000		-0.00000	# opls_157	opls_136	opls_136	opls_140
11	0.00000	-0.00000		0.46800		-0.00000	# opls_154	opls_157	opls_136	opls_140
12	-0.00000	-0.00000		0.30000		-0.00000	# opls_140	opls_135	opls_136	opls_140
13	-0.00000	-0.00000		0.30000		-0.00000	# opls_140	opls_136	opls_136	opls_140
14	-0.00000	-0.00000		0.30000		-0.00000	# opls_140	opls_136	opls_157	opls_140
15	0.00000	-0.00000		0.45000		-0.00000	# opls_140	opls_157	opls_154	opls_155

Atoms # full

1	1	5	-0.006000	24.982145	21.716784	18.273837
2	1	4	-0.200000	23.225543	21.503082	18.446797
3	1	4	-0.200000	25.308858	23.131753	17.247994
4	1	6	0.103000	25.435992	21.872507	19.274109
5	1	6	0.103000	25.420487	20.811522	17.805727
6	2	5	-0.006000	20.710138	31.403653	31.312548
7	2	4	-0.200000	20.170604	31.949416	29.708716
8	2	4	-0.200000	21.572946	32.726359	32.129396
9	2	6	0.103000	19.829051	31.107353	31.918076
10	2	6	0.103000	21.389515	30.534107	31.198064
11	3	5	-0.006000	6.139119	24.711404	9.924681
12	3	4	-0.200000	4.643285	25.052502	10.823215
13	3	4	-0.200000	5.908036	25.123857	8.210705
14	3	6	0.103000	6.968199	25.318620	10.342635
15	3	6	0.103000	6.387563	23.634002	10.015528
16	4	5	-0.006000	27.058621	18.206845	30.169913
17	4	4	-0.200000	28.764339	18.064367	29.688813
18	4	4	-0.200000	26.608191	16.811982	31.176244
19	4	6	0.103000	26.914528	19.142291	30.748662
20	4	6	0.103000	26.419468	18.230635	29.263443
21	5	5	-0.006000	18.912470	2.967133	10.907045
22	5	4	-0.200000	20.024220	2.682135	12.264993
23	5	4	-0.200000	19.693210	4.030567	9.715079
24	5	6	0.103000	18.657699	1.999308	10.428319
25	5	6	0.103000	17.986408	3.449246	11.282206
26	6	5	-0.006000	12.516482	32.861180	27.700145
27	6	4	-0.200000	11.173332	34.020718	27.587679
28	6	4	-0.200000	11.866929	31.222746	27.934340
29	6	6	0.103000	13.111634	32.892782	26.764427
30	6	6	0.103000	13.164694	33.128387	28.559908
31	7	5	-0.006000	24.182634	19.228379	16.261739
32	7	4	-0.200000	23.728598	19.414993	17.970616
33	7	4	-0.200000	22.756821	18.737148	15.319941
34	7	6	0.103000	24.567394	20.193892	15.873775
35	7	6	0.103000	24.970819	18.452934	16.171078
36	8	5	-0.006000	9.375939	35.253674	11.092756
37	8	4	-0.200000	10.554565	34.036415	11.631602
38	8	4	-0.200000	8.109711	35.439638	12.326984
39	8	6	0.103000	9.890329	36.224896	10.941424
40	8	6	0.103000	8.916207	34.925937	10.137766
41	9	5	-0.006000	7.259982	11.291142	22.462643
42	9	4	-0.200000	6.832300	12.182384	20.984804
43	9	4	-0.200000	7.287403	9.547460	22.116156
44	9	6	0.103000	8.261879	11.614440	22.812575
45	9	6	0.103000	6.507830	11.499731	23.251015
46	10	5	-0.006000	23.817446	29.575502	19.003061
47	10	4	-0.200000	23.462562	29.188020	17.304489
48	10	4	-0.200000	25.578007	29.661768	19.235901
49	10	6	0.103000	23.361790	30.553223	19.262311
50	10	6	0.103000	23.396018	28.785727	19.658366
51	11	5	-0.006000	16.410081	21.122010	25.204592
52	11	4	-0.200000	17.620921	20.451965	26.320897
53	11	4	-0.200000	17.233639	21.966581	23.874298
54	11	6	0.103000	15.791026	20.298601	24.792838
55	11	6	0.103000	15.759756	21.836521	25.749865
56	12	5	-0.006000	22.211584	32.517512	5.893157
57	12	4	-0.200000	21.837601	32.207133	4.182884
58	12	4	-0.200000	22.625361	30.986367	6.696659
59	12	6	0.103000	23.070839	33.215779	5.962985
60	12	6	0.103000	21.327500	32.968279	6.389116
61	13	5	-0.006000	22.456182	24.958914	15.093835
62	13	4	-0.200000	23.061309	23.571828	16.027133
63	13	4	-0.200000	23.721658	26.203886	14.994608
64	13	6	0.103000	22.183899	24.626048	14.071175
65	13	6	0.103000	21.561287	25.380453	15.596069
66	14	5	-0.006000	7.872429	13.330426	9.394817
67	14	4	-0.200000	8.625887	12.588566	7.965420
68	14	4	-0.200000	6.749804	14.608258	8.877043
69	14	6	0.103000	7.315737	12.556949	9.962795
70	14	6	0.103000	8.659465	13.769479	10.041792
71	15	5	-0.006000	6.186116	31.958224	27.429790
72	15	4	-0.200000	6.578801	30.623257	28.536539
73	15	4	-0.200000	4.683294	31.582118	26.557262
74	15	6	0.103000	6.051939	32.893408	28.011339
75	15	6	0.103000	7.012970	32.090677	26.702096
76	16	5	-0.006000	28.017958	13.889472	31.495844
77	16	4	-0.200000	26.911135	12.821517	30.603855
78	16	4	-0.200000	28.779781	15.030850	30.365307
79	16	6	0.103000	27.449223	14.453392	32.263507
80	16	6	0.103000	28.801959	13.279741	31.990153
81	17	5	-0.006000	27.644128	27.473709	35.301156
82	17	4	-0.200000	29.348493	26.976200	35.395264
83	17	4	-0.200000	26.604843	26.131186	35.829124
84	17	6	0.103000	27.478070	28.350971	35.959645
85	17	6	0.103000	27.395203	27.744549	34.254517
86	18	5	-0.006000	3.708586	12.080528	26.952986
87	18	4	-0.200000	4.893130	12.807458	28.061886
88	18	4	-0.200000	4.192355	12.405172	25.273163
89	18	6	0.103000	3.668643	10.984667	27.121107
90	18	6	0.103000	2.707572	12.520251	27.141096
91	19	5	-0.006000	9.931274	21.440861	11.201063
92	19	4	-0.200000	10.208996	19.893238	12.031104
93	19	4	-0.200000	11.348761	21.842211	10.205634
94	19	6	0.103000	9.035444	21.356866	10.552060
95	19	6	0.103000	9.769365	22.240081	11.953262
96	20	5	-0.006000	9.622997	25.647225	13.882229
97	20	4	-0.200000	9.985435	23.923406	13.640733
98	20	4	-0.200000	8.341982	26.147059	12.755110
99	20	6	0.103000	9.282382	25.810904	14.925283
100	20	6	0.103000	10.536764	26.247260	13.693133
101	21	5	-0.006000	21.318346	27.253707	7.712866
102	21	4	-0.200000	22.591608	26.019508	7.583304
103	21	4	-0.200000	22.056120	28.871206	7.688027
104	21	6	0.103000	20.617935	27.153564	6.858367
105	21	6	0.103000	20.763953	27.114688	8.663705
106	22	5	-0.006000	27.657456	29.704385	5.428369
107	22	4	-0.200000	28.816975	30.015020	4.116785
108	22	4	-0.200000	26.002955	29.744364	4.778552
109	22	6	0.103000	27.857292	28.706487	5.869997
110	22	6	0.103000	27.766466	30.483516	6.210573
111	23	5	-0.006000	20.420457	27.504222	34.038021
112	23	4	-0.200000	20.263074	26.048256	35.046300
113	23	4	-0.200000	19.230660	28.717987	34.559930
114	23	6	0.103000	21.443639	27.919418	34.145178
115	23	6	0.103000	20.237859	27.240149	32.976092
116	24	5	-0.006000	10.244548	32.243159	34.703137
117	24	4	-0.200000	9.430668	31.537184	33.288771
118	24	4	-0.200000	9.211458	32.052851	36.137619
119	24	6	0.103000	11.210355	31.723869	34.871448
120	24	6	0.103000	10.431174	33.321690	34.522275
121	25	5	-0.006000	6.926658	28.361024	9.297607
122	25	4	-0.200000	6.999707	30.133608	9.415266
123	25	4	-0.200000	5.244915	27.854186	9.021768
124	25	6	0.103000	7.559015	28.020153	8.452207
125	25	6	0.103000	7.298057	27.912124	10.241705
126	26	5	-0.006000	5.919370	29.721494	7.036451
127	26	4	-0.200000	7.581237	30.348953	7.112100
128	26	4	-0.200000	5.959762	27.946417	6.943175
129	26	6	0.103000	5.365276	30.031488	7.946207
130	26	6	0.103000	5.411324	30.127566	6.137693
131	27	5	-0.006000	8.115185	33.294230	18.766707
132	27	4	-0.200000	7.369969	34.898646	18.944849
133	27	4	-0.200000	9.481325	33.397834	17.633499
134	27	6	0.103000	8.479652	32.944058	19.754287
135	27	6	0.103000	7.363289	32.578670	18.375048
136	28	5	-0.006000	12.937362	32.833686	16.101322
137	28	4	-0.200000	12.598544	33.252220	14.406842
138	28	4	-0.200000	14.293636	31.685975	16.168499
139	28	6	0.103000	13.202452	33.752726	16.663341
140	28	6	0.103000	12.037423	32.369623	16.554671
141	29	5	-0.006000	22.976143	24.273188	31.283160
142	29	4	-0.200000	24.227263	23.611466	30.207031
143	29	4	-0.200000	23.571559	25.771086	32.033501
144	29	6	0.103000	22.061062	24.492367	30.695487
145	29	6	0.103000	22.739062	23.532270	32.074112
146	30	5	-0.006000	35.160751	30.165900	28.979357
147	30	4	-0.200000	36.835261	30.763588	28.983569
148	30	4	-0.200000	35.090880	28.592845	29.805097
149	30	6	0.103000	34.508127	30.890521	29.508298
150	30	6	0.103000	34.812147	30.049867	27.932561
151	31	5	-0.006000	19.859313	3.706127	30.956100
152	31	4	-0.200000	20.441668	3.910308	32.623555
153	31	4	-0.200000	21.164870	4.110071	29.818743
154	31	6	0.103000	19.545612	2.653477	30.800244
155	31	6	0.103000	18.995037	4.379334	30.781198
156	32	5	-0.006000	5.507780	6.662037	4.430333
157	32	4	-0.200000	7.220469	7.130685	4.521421
158	32	4	-0.200000	4.525126	8.085051	4.017229
159	32	6	0.103000	5.378259	5.884051	3.650119
160	32	6	0.103000	5.181790	6.259706	5.411470
161	33	5	-0.006000	5.675801	36.563704	21.717856
162	33	4	-0.200000	5.663738	35.781969	20.120992
163	33	4	-0.200000	4.233771	37.590084	21.886159
164	33	6	0.103000	5.671310	35.786912	22.509908
165	33	6	0.103000	6.587586	37.187849	21.817167
166	34	5	-0.006000	7.529655	11.633738	4.817338
167	34	4	-0.200000	7.045583	12.594237	6.233088
168	34	4	-0.200000	6.248969	10.463009	4.429433
169	34	6	0.103000	7.689719	12.307446	3.950581
170	34	6	0.103000	8.470724	11.091204	5.042763
171	35	5	-0.006000	9.008287	5.346581	19.635631
172	35	4	-0.200000	9.013823	7.123616	19.577778
173	35	4	-0.200000	7.332286	4.756704	19.570058
174	35	6	0.103000	9.575224	4.946634	18.769955
175	35	6	0.103000	9.483649	5.005792	20.578321
176	36	5	-0.006000	34.426249	19.041048	7.648119
177	36	4	-0.200000	34.564784	17.399224	8.316291
178	36	4	-0.200000	34.812599	20.229971	8.912408
179	36	6	0.103000	35.134797	19.157117	6.802390
180	36	6	0.103000	33.390194	19.207570	7.288075
181	37	5	-0.006000	10.689549	36.298733	37.248923
182	37	4	-0.200000	11.438438	35.990970	35.665990
183	37	4	-0.200000	11.453266	37.717834	38.000003
184	37	6	0.103000	9.605187	36.490383	37.114015
185	37	6	0.103000	10.830109	35.413655	37.902874
186	38	5	-0.006000	10.032241	26.919747	7.004940
187	38	4	-0.200000	9.720471	26.676846	8.738442
188	38	4	-0.200000	11.694231	27.509498	6.778631
189	38	6	0.103000	9.905003	25.957361	6.467916
190	38	6	0.103000	9.316998	27.665714	6.601539
191	39	5	-0.006000	17.457883	10.533674	24.707863
192	39	4	-0.200000	17.400721	8.980369	23.844608
193	39	4	-0.200000	18.956159	11.392228	24.284441
194	39	6	0.103000	16.583141	11.150869	24.416882
195	39	6	0.103000	17.433429	10.349975	25.801676
196	40	5	-0.006000	12.403079	23.914342	25.528590
197	40	4	-0.200000	11.071425	24.882169	24.856848
198	40	4	-0.200000	13.366242	23.229026	24.200475
199	40	6	0.103000	13.048610	24.560356	26.158452
200	40	6	0.103000	11.987471	23.092052	26.146555
201	41	5	-0.006000	33.578062	17.084408	32.889694
202	41	4	-0.200000	32.515007	18.243913	33.718364
203	41	4	-0.200000	34.852029	17.966640	32.017969
204	41	6	0.103000	34.041648	16.408221	33.637110
205	41	6	0.103000	32.982876	16.486637	32.169142
206	42	5	-0.006000	30.788735	17.895656	5.260153
207	42	4	-0.200000	29.553315	18.684404	4.253750
208	42	4	-0.200000	30.158444	16.348318	5.868191
209	42	6	0.103000	31.698321	17.711233	4.652359
210	42	6	0.103000	31.043273	18.553406	6.116508
211	43	5	-0.006000	11.032560	18.906254	24.363256
212	43	4	-0.200000	12.293627	17.909183	23.603790
213	43	4	-0.200000	11.734116	20.455577	24.881570
214	43	6	0.103000	10.219715	19.094547	23.632092
215	43	6	0.103000	10.620810	18.373379	25.244889
216	44	5	-0.006000	34.589659	8.484620	27.779877
217	44	4	-0.200000	34.110626	8.090815	29.446213
218	44	4	-0.200000	33.234519	8.149460	26.678742
219	44	6	0.103000	34.860354	9.558647	27.716942
220	44	6	0.103000	35.463409	7.865436	27.490149
221	45	5	-0.006000	10.172758	5.102690	5.828789
222	45	4	-0.200000	10.374692	3.338600	5.736917
223	45	4	-0.200000	11.641170	5.899757	5.220777
224	45	6	0.103000	9.303405	5.408065	5.210935
225	45	6	0.103000	9.999884	5.400695	6.883340
226	46	5	-0.006000	6.313606	15.293593	2.808067
227	46	4	-0.200000	6.591605	17.017106	3.144888
228	46	4	-0.200000	7.856638	14.514788	2.391235
229	46	6	0.103000	5.884101	14.805689	3.707093
230	46	6	0.103000	5.606865	15.192037	1.958965
231	47	5	-0.006000	36.130357	11.152228	16.988773
232	47	4	-0.200000	37.557740	12.212242	17.002201
233	47	4	-0.200000	36.631690	9.478891	17.320195
234	47	6	0.103000	35.415038	11.485303	17.768613
235	47	6	0.103000	35.642240	11.201841	15.993760
236	48	5	-0.006000	29.876381	36.116230	23.858541
237	48	4	-0.200000	29.709525	34.729757	24.959034
238	48	4	-0.200000	28.283275	36.538508	23.191513
239	48	6	0.103000	30.285617	36.983701	24.416027
240	48	6	0.103000	30.565287	35.850376	23.030591
241	49	5	-0.006000	22.556292	3.663126	21.829494
242	49	4	-0.200000	20.834755	3.526882	21.406436
243	49	4	-0.200000	23.547078	3.054557	20.484423
244	49	6	0.103000	22.806822	4.726645	22.021676
245	49	6	0.103000	22.761721	3.064340	22.740551
246	50	5	-0.006000	23.589812	20.651189	12.242885
247	50	4	-0.200000	24.557867	21.943251	11.498118
248	50	4	-0.200000	22.757594	21.287301	13.679550
249	50	6	0.103000	22.839290	20.283953	11.513073
250	50	6	0.103000	24.255577	19.815327	12.540981
251	51	5	-0.006000	18.280105	36.426239	3.765924
252	51	4	-0.200000	18.236186	34.697824	4.180514
253	51	4	-0.200000	17.798210	36.640851	2.067999
254	51	6	0.103000	17.579263	36.981897	4.422305
255	51	6	0.103000	19.309033	36.815130	3.910291
256	52	5	-0.006000	21.652946	8.870082	17.924096
257	52	4	-0.200000	22.307929	7.280012	18.375654
258	52	4	-0.200000	21.388293	9.840169	19.390426
259	52	6	0.103000	22.372920	9.391718	17.260541
260	52	6	0.103000	20.689421	8.735291	17.390971
261	53	5	-0.006000	28.310247	24.810252	33.226555
262	53	4	-0.200000	28.510554	23.749882	31.813500
263	53	4	-0.200000	28.360678	26.509133	32.704548
264	53	6	0.103000	27.334195	24.600928	33.710577
265	53	6	0.103000	29.129849	24.621172	33.949930
266	54	5	-0.006000	10.992387	17.038465	12.657139
267	54	4	-0.200000	11.159832	17.955101	11.142882
268	54	4	-0.200000	9.509822	16.058919	12.596107
269	54	6	0.103000	11.870483	16.372685	12.785423
270	54	6	0.103000	10.934870	17.743497	13.511768
271	55	5	-0.006000	12.692738	5.739801	19.341920
272	55	4	-0.200000	11.096533	6.499478	19.151515
273	55	4	-0.200000	12.512591	3.971012	19.329101
274	55	6	0.103000	13.352238	6.050417	18.505649
275	55	6	0.103000	13.141605	6.058827	20.304993
276	56	5	-0.006000	34.105804	9.940231	34.241412
277	56	4	-0.200000	32.690002	10.045324	35.311783
278	56	4	-0.200000	35.588737	9.907030	35.221738
279	56	6	0.103000	34.042747	9.013562	33.634717
280	56	6	0.103000	34.126974	10.822043	33.568560
281	57	5	-0.006000	17.682042	10.003356	29.784157
282	57	4	-0.200000	18.407097	10.569060	28.262479
283	57	4	-0.200000	16.564924	11.239895	30.404038
284	57	6	0.103000	17.125917	9.061055	29.600949
285	57	6	0.103000	18.482797	9.821135	30.530051
286	58	5	-0.006000	15.477976	34.149837	33.121063
287	58	4	-0.200000	17.169818	34.692603	33.055423
288	58	4	-0.200000	14.401820	35.520041	32.766580
289	58	6	0.103000	15.317037	33.349290	32.370067
290	58	6	0.103000	15.254754	33.756771	34.134198
291	59	5	-0.006000	30.261390	36.190269	11.889436
292	59	4	-0.200000	31.981667	35.773102	11.722546
293	59	4	-0.200000	30.031370	37.185401	13.344783
294	59	6	0.103000	29.930506	36.759189	10.996342
295	59	6	0.103000	29.662418	35.260724	11.978587
296	60	5	-0.006000	20.743278	19.026454	5.522064
297	60	4	-0.200000	19.094258	18.601610	6.033409
298	60	4	-0.200000	20.726303	19.515091	3.812626
299	60	6	0.103000	21.118249	19.865915	6.142928
300	60	6	0.103000	21.407816	18.147188	5.648758
301	61	5	-0.006000	3.536811	36.214819	11.058305
302	61	4	-0.200000	4.120397	37.226051	9.717384
303	61	4	-0.200000	2.035936	36.907410	11.713227
304	61	6	0.103000	3.339450	35.187761	10.688207
305	61	6	0.103000	4.306522	36.178762	11.856438
306	62	5	-0.006000	17.376685	35.185481	36.490415
307	62	4	-0.200000	15.804202	34.425765	36.156709
308	62	4	-0.200000	17.228674	36.260013	37.899210
309	62	6	0.103000	18.129747	34.398971	36.702717
310	62	6	0.103000	17.697140	35.775559	35.607302
311	63	5	-0.006000	33.304120	31.823670	4.526202
312	63	4	-0.200000	32.448626	32.569186	5.894986
313	63	4	-0.200000	32.159846	30.858453	3.566919
314	63	6	0.103000	33.743824	32.617653	3.888218
315	63	6	0.103000	34.112186	31.166772	4.908674
316	64	5	-0.006000	20.509950	12.839999	19.145503
317	64	4	-0.200000	20.233716	14.028379	17.852181
318	64	4	-0.200000	19.129397	12.851689	20.265846
319	64	6	0.103000	20.617598	11.828893	18.701828
320	64	6	0.103000	21.436066	13.102313	19.697109
321	65	5	-0.006000	16.141685	32.650792	16.918132
322	65	4	-0.200000	15.699231	31.219558	17.875751
323	65	4	-0.200000	16.315093	32.190261	15.209602
324	65	6	0.103000	15.348405	33.420263	17.015043
325	65	6	0.103000	17.102840	33.061704	17.289757
326	66	5	-0.006000	16.497814	20.434671	29.400129
327	66	4	-0.200000	14.975030	19.571180	29.711169
328	66	4	-0.200000	16.394505	22.078426	30.069927
329	66	6	0.103000	17.336285	19.891023	29.881983
330	66	6	0.103000	16.673955	20.491468	28.306274
331	67	5	-0.006000	14.892355	9.503586	18.618551
332	67	4	-0.200000	16.108683	10.492860	19.457073
333	67	4	-0.200000	14.947485	7.840267	19.244301
334	67	6	0.103000	13.883659	9.931146	18.793182
335	67	6	0.103000	15.107716	9.496602	17.530277
336	68	5	-0.006000	13.331140	14.856668	21.500134
337	68	4	-0.200000	14.601515	13.696652	21.949292
338	68	4	-0.200000	14.062049	16.235769	20.648616
339	68	6	0.103000	12.594835	14.359774	20.835512
340	68	6	0.103000	12.818729	15.216863	22.415812
341	69	5	-0.006000	33.565469	30.178779	9.817771
342	69	4	-0.200000	35.252767	30.727000	9.700676
343	69	4	-0.200000	32.481867	31.588309	9.801476
344	69	6	0.103000	33.329682	29.521083	8.956022
345	69	6	0.103000	33.424575	29.614922	10.762750
346	70	5	-0.006000	25.194272	26.039152	21.504176
347	70	4	-0.200000	25.099593	24.306673	21.892487
348	70	4	-0.200000	26.579033	26.330408	20.427683
349	70	6	0.103000	24.259350	26.356334	20.998125
350	70	6	0.103000	25.324238	26.621232	22.439624
351	71	5	-0.006000	10.419350	29.540638	35.834974
352	71	4	-0.200000	12.102257	30.080177	36.029791
353	71	4	-0.200000	10.347913	27.767987	35.952617
354	71	6	0.103000	9.792357	29.989744	36.632443
355	71	6	0.103000	10.040853	29.860941	34.842545
356	72	5	-0.006000	9.138823	21.048374	20.593257
357	72	4	-0.200000	9.428200	19.653590	21.657244
358	72	4	-0.200000	8.917247	20.483098	18.922149
359	72	6	0.103000	8.226484	21.584551	20.926308
360	72	6	0.103000	10.008855	21.735192	20.639022
361	73	5	-0.006000	34.567214	5.146540	18.762774
362	73	4	-0.200000	33.776864	3.554595	18.714909
363	73	4	-0.200000	36.260622	4.952510	19.268691
364	73	6	0.103000	34.533078	5.606836	17.753946
365	73	6	0.103000	34.037881	5.800616	19.485796
366	74	5	-0.006000	11.535950	20.289566	5.351483
367	74	4	-0.200000	10.809093	19.846164	6.912349
368	74	4	-0.200000	10.847337	21.830929	4.793590
369	74	6	0.103000	12.633561	20.396933	5.471873
370	74	6	0.103000	11.321533	19.497117	4.605278
371	75	5	-0.006000	19.894499	29.235723	27.734333
372	75	4	-0.200000	20.923546	30.267153	26.715292
373	75	4	-0.200000	18.229002	29.261386	27.112486
374	75	6	0.103000	20.280044	28.195629	27.716139
375	75	6	0.103000	19.906071	29.616235	28.776373
376	76	5	-0.006000	24.475287	29.386901	36.467289
377	76	4	-0.200000	23.861306	27.770238	36.880399
378	76	4	-0.200000	25.978426	29.697164	37.364808
379	76	6	0.103000	24.677830	29.438266	35.377744
380	76	6	0.103000	23.717948	30.150674	36.739058
381	77	5	-0.006000	31.397856	29.468429	29.048588
382	77	4	-0.200000	32.162595	29.661873	27.455169
383	77	4	-0.200000	29.778904	30.202950	29.022060
384	77	6	0.103000	31.310202	28.388738	29.288078
385	77	6	0.103000	32.018503	29.969110	29.819878
386	78	5	-0.006000	22.107610	7.467263	6.035352
387	78	4	-0.200000	23.347383	8.718779	5.794722
388	78	4	-0.200000	20.845877	7.636556	4.794143
389	78	6	0.103000	22.574193	6.464045	5.953948
390	78	6	0.103000	21.654730	7.583955	7.041360
391	79	5	-0.006000	20.609447	20.303857	29.110913
392	79	4	-0.200000	22.107750	19.767880	28.317788
393	79	4	-0.200000	20.036922	19.034106	30.215983
394	79	6	0.103000	20.806706	21.232414	29.685057
395	79	6	0.103000	19.834540	20.501997	28.342128
396	80	5	-0.006000	32.568972	23.611180	10.852921
397	80	4	-0.200000	33.105612	25.273684	10.522273
398	80	4	-0.200000	33.988091	22.565078	11.083145
399	80	6	0.103000	31.947614	23.599034	11.771909
400	80	6	0.103000	31.970019	23.238716	9.996593
401	81	5	-0.006000	33.458330	13.426092	21.392098
402	81	4	-0.200000	34.024177	15.090291	21.659475
403	81	4	-0.200000	34.852052	12.371501	21.065590
404	81	6	0.103000	32.926431	13.066501	22.296835
405	81	6	0.103000	32.767541	13.405313	20.524256
406	82	5	-0.006000	21.316039	13.017987	8.374826
407	82	4	-0.200000	23.084856	13.149221	8.251163
408	82	4	-0.200000	20.685731	14.381078	9.326628
409	82	6	0.103000	20.871655	13.039772	7.358549
410	82	6	0.103000	21.050039	12.063806	8.874380
411	83	5	-0.006000	16.897881	34.785319	21.467596
412	83	4	-0.200000	18.671146	34.769798	21.596141
413	83	4	-0.200000	16.270921	33.140896	21.720629
414	83	6	0.103000	16.477209	35.464050	22.237746
415	83	6	0.103000	16.603308	35.142324	20.459358
416	84	5	-0.006000	24.504543	33.070235	17.924994
417	84	4	-0.200000	23.545361	34.550081	17.698599
418	84	4	-0.200000	23.565007	31.664922	17.373995
419	84	6	0.103000	25.441415	33.142962	17.335288
420	84	6	0.103000	24.752392	32.951001	18.999762
421	85	5	-0.006000	9.903342	34.702316	15.338987
422	85	4	-0.200000	8.131848	34.800336	15.223097
423	85	4	-0.200000	10.412327	33.003331	15.214030
424	85	6	0.103000	10.360782	35.286988	14.514561
425	85	6	0.103000	10.233656	35.116579	16.313692
426	86	5	-0.006000	33.736653	24.308489	2.926155
427	86	4	-0.200000	32.734566	23.614629	4.220610
428	86	4	-0.200000	35.445279	24.274747	3.416756
429	86	6	0.103000	33.606409	23.713872	1.998664
430	86	6	0.103000	33.426045	25.357099	2.739846
431	87	5	-0.006000	36.087533	19.599274	19.630568
432	87	4	-0.200000	35.599524	20.672507	20.961451
433	87	4	-0.200000	35.914958	20.457826	18.083204
434	87	6	0.103000	37.145612	19.295902	19.769155
435	87	6	0.103000	35.441631	18.697294	19.627058
436	88	5	-0.006000	35.159180	4.261902	28.573463
437	88	4	-0.200000	36.809011	4.287893	29.235740
438	88	4	-0.200000	34.866993	5.753972	27.651734
439	88	6	0.103000	35.043230	3.384935	27.903943
440	88	6	0.103000	34.428015	4.191662	29.404869
441	89	5	-0.006000	35.984325	5.626609	5.116346
442	89	4	-0.200000	37.681517	6.139480	5.249518
443	89	4	-0.200000	35.342677	6.107461	3.529431
444	89	6	0.103000	35.921837	4.524004	5.221838
445	89	6	0.103000	35.388198	6.109174	5.917929
446	90	5	-0.006000	22.855638	28.815302	30.100320
447	90	4	-0.200000	24.227540	29.774248	30.699935
448	90	4	-0.200000	23.464346	27.420504	29.180948
449	90	6	0.103000	22.251493	28.457016	30.959047
450	90	6	0.103000	22.223965	29.445540	29.441108
451	91	5	-0.006000	9.153723	29.514954	16.159366
452	91	4	-0.200000	8.248015	31.036798	16.001522
453	91	4	-0.200000	8.013542	28.154347	16.259196
454	91	6	0.103000	9.811096	29.382476	15.275578
455	91	6	0.103000	9.772899	29.546827	17.079353
456	92	5	-0.006000	9.512486	36.648490	21.543414
457	92	4	-0.200000	10.091377	37.672778	22.876437
458	92	4	-0.200000	8.915100	35.106706	22.197067
459	92	6	0.103000	8.690140	37.166963	21.008902
460	92	6	0.103000	10.346373	36.452911	20.838323
461	93	5	-0.006000	34.018487	8.540622	8.246448
462	93	4	-0.200000	33.793554	10.293040	8.047278
463	93	4	-0.200000	32.509135	7.698254	7.829913
464	93	6	0.103000	34.832385	8.193817	7.577069
465	93	6	0.103000	34.286710	8.319594	9.300001
466	94	5	-0.006000	34.275135	15.270817	3.433795
467	94	4	-0.200000	34.218035	15.002124	5.190433
468	94	4	-0.200000	35.260065	14.001733	2.671844
469	94	6	0.103000	33.245908	15.237957	3.021020
470	94	6	0.103000	34.725434	16.263184	3.225928
471	95	5	-0.006000	27.747700	36.354246	14.273744
472	95	4	-0.200000	28.941240	35.222804	14.949418
473	95	4	-0.200000	26.107392	35.764276	14.623823
474	95	6	0.103000	27.886314	37.355120	14.731792
475	95	6	0.103000	27.887852	36.427460	13.175669
476	96	5	-0.006000	30.792773	18.258644	27.169523
477	96	4	-0.200000	30.823837	20.033230	27.274937
478	96	4	-0.200000	32.435031	17.621738	27.411537
479	96	6	0.103000	30.119798	17.853383	27.952875
480	96	6	0.103000	30.421664	17.954041	26.169389
481	97	5	-0.006000	6.515594	12.627263	30.853845
482	97	4	-0.200000	5.120612	11.532530	30.724168
483	97	4	-0.200000	7.379606	12.672806	29.300577
484	97	6	0.103000	6.162656	13.647173	31.110729
485	97	6	0.103000	7.199835	12.262003	31.647047
486	98	5	-0.006000	15.495400	10.738154	27.520326
487	98	4	-0.200000	13.919571	10.677333	26.699171
488	98	4	-0.200000	16.476604	12.047001	26.823627
489	98	6	0.103000	15.341386	10.927342	28.602573
490	98	6	0.103000	16.020436	9.770251	27.385156
491	99	5	-0.006000	28.043592	20.269031	13.943697
492	99	4	-0.200000	29.676752	19.568223	13.889936
493	99	4	-0.200000	28.154593	22.039950	13.830754
494	99	6	0.103000	27.446459	19.880931	13.093060
495	99	6	0.103000	27.552441	19.989425	14.898350
496	100	5	-0.006000	4.398153	36.475296	17.145803
497	100	4	-0.200000	3.680627	35.170311	18.117092
498	100	4	-0.200000	3.383428	37.930309	17.266223
499	100	6	0.103000	5.415854	36.701773	17.524966
500	100	6	0.103000	4.461304	36.155208	16.085461
501	101	5	-0.006000	36.182765	16.957484	27.158111
502	101	4	-0.200000	37.736887	17.427874	26.433771
503	101	4	-0.200000	34.851771	17.517495	26.120770
504	101	6	0.103000	36.138172	15.853041	27.252925
505	101	6	0.103000	36.088134	17.419000	28.162510
506	102	5	-0.006000	30.759837	26.882302	23.197080
507	102	4	-0.200000	29.590832	28.214407	23.055107
508	102	4	-0.200000	29.891256	25.331027	23.215610
509	102	6	0.103000	31.454955	26.906618	22.332794
510	102	6	0.103000	31.336087	26.994739	24.138390
511	103	5	-0.006000	33.626154	27.541247	33.194493
512	103	4	-0.200000	34.260846	28.569857	31.890515
513	103	4	-0.200000	33.828286	28.369832	34.754565
514	103	6	0.103000	32.549002	27.342881	33.017955
515	103	6	0.103000	34.181164	26.580802	33.211241
516	104	5	-0.006000	24.321055	28.644991	14.176676
517	104	4	-0.200000	22.989939	28.510903	13.005615
518	104	4	-0.200000	25.568919	27.436917	13.796383
519	104	6	0.103000	24.761496	29.661697	14.121078
520	104	6	0.103000	23.932558	28.465738	15.200253
521	105	5	-0.006000	14.312429	24.750240	36.441380
522	105	4	-0.200000	15.011853	26.370261	36.659486
523	105	4	-0.200000	12.619660	24.757427	36.985175
524	105	6	0.103000	14.355065	24.470391	35.368702
525	105	6	0.103000	14.889597	24.014781	37.038663
526	106	5	-0.006000	27.285651	29.105274	16.950102
527	106	4	-0.200000	27.378873	30.569552	17.954309
528	106	4	-0.200000	26.561714	29.510255	15.377481
529	106	6	0.103000	28.305881	28.698495	16.793791
530	106	6	0.103000	26.658961	28.345713	17.461080
531	107	5	-0.006000	33.921928	31.515141	20.099025
532	107	4	-0.200000	35.493875	32.335434	20.230686
533	107	4	-0.200000	34.173924	29.755840	20.048139
534	107	6	0.103000	33.295185	31.773699	20.977155
535	107	6	0.103000	33.410608	31.842485	19.170495
536	108	5	-0.006000	23.921453	32.469536	9.951043
537	108	4	-0.200000	23.352506	33.960653	9.167398
538	108	4	-0.200000	22.834298	31.127002	9.530413
539	108	6	0.103000	24.948493	32.236990	9.601926
540	108	6	0.103000	23.927750	32.609371	11.051578
541	109	5	-0.006000	5.920730	37.068004	33.227336
542	109	4	-0.200000	5.871613	37.185909	35.000727
543	109	4	-0.200000	6.514394	35.459544	32.756536
544	109	6	0.103000	4.900796	37.220085	32.818217
545	109	6	0.103000	6.600890	37.845965	32.823691
546	110	5	-0.006000	15.864841	5.639905	22.488976
547	110	4	-0.200000	16.399952	4.418490	23.665000
548	110	4	-0.200000	15.767512	4.904273	20.873239
549	110	6	0.103000	14.865546	6.022478	22.781925
550	110	6	0.103000	16.590978	6.478445	22.470388
551	111	5	-0.006000	9.149368	5.524078	24.207396
552	111	4	-0.200000	10.128334	4.411955	23.224523
553	111	4	-0.200000	9.314361	7.177014	23.573513
554	111	6	0.103000	8.084463	5.216041	24.164225
555	111	6	0.103000	9.500489	5.494669	25.259356
556	112	5	-0.006000	12.460890	9.358484	21.441255
557	112	4	-0.200000	12.506093	10.730296	20.311069