
variable        infile index DCM_octanol_75p.data   # The name of the (edited) data file

#>>>>>> Simulation settings <<<<<<<

units		 real		#angstroms = length -
atom_style	 full		#How the atoms are defined in the input data file
boundary        p p p           #periodic box in x, y and z
pair_style	 lj/cut/coul/long 12.0    #'lj/cut/coul/long
pair_modify     tail yes            #Tail corrections
pair_modify     mix arithmetic      #Lorentz-Berthelot pair interactions between dissimilar atom

special_bonds   lj/coul 0.0 0.0 0.5
kspace_style    ewald 0.0001
bond_style      harmonic
angle_style     harmonic
dihedral_style  opls


# inputs settings
variable   simulationTemp  index 310     #Simulation temperature
variable   simulationPress equal 0.987	 #Simulation pressure

# Output files frequencies
variable        dumpfreq   index 1000          #Output frequency of dump information to dump
variable        thermofreq index 1000          #Output frequency of property information to log
variable        printfreq  index 1000          #Output frequency of information to be printed
variable        restartfreq index 1000000      #Output frequency of restart files


# Simulation run times (equilibration and production)
variable        NVT_equib  index 100000       # Equilibration run length (in timesteps)
variable        NVT_prod   index 30000       # Simulation run length  (in timesteps)


# Output
variable    step        equal step
variable    density     equal density
variable    temp        equal temp
variable    press       equal press
variable    ke          equal ke
variable    pe          equal pe
variable    etotal      equal etotal
variable    enthalpy    equal enthalpy


# >>>>>>>>>>> Reading data, Neighbor list settings, energy minimization, assigning initial velocities & specifying thermodynamic property output style to log files <<<<<<<<<

read_data	${infile}
read_data	DCM_octanol_75p.data
  orthogonal box = (0 0 0) to (40 40 40)
  3 by 4 by 4 MPI processor grid
  reading atoms ...
  2100 atoms
  scanning bonds ...
  1 = max bonds/atom
  scanning angles ...
  6 = max angles/atom
  scanning dihedrals ...
  10 = max dihedrals/atom
  reading bonds ...
  1900 bonds
  reading angles ...
  3350 angles
  reading dihedrals ...
  3300 dihedrals
  4 = max # of 1-2 neighbors
  6 = max # of 1-3 neighbors
  12 = max # of 1-4 neighbors
  16 = max # of special neighbors
  special bonds CPU = 0.99298 secs
  read_data CPU = 1.5508 secs
neighbor        1.0 bin
neigh_modify    delay 0 every 1 check yes page 1000000 one 20000
timestep        1.0

minimize        1e-4 1e-6 10000 100000        #Energy minimize before creating velocities
Ewald initialization ...
WARNING: System is not charge neutral, net charge = -30 (src/kspace.cpp:313)
  using 12-bit tables for long-range coulomb (src/kspace.cpp:332)
  G vector (1/distance) = 0.152552
  estimated absolute RMS force accuracy = 0.0356093
  estimated relative force accuracy = 0.000107236
  KSpace vectors: actual max1d max3d = 128 4 364
                  kxmax kymax kzmax  = 4 4 4
Neighbor list info ...
  update every 1 steps, delay 0 steps, check yes
  max neighbors/atom: 20000, page size: 1000000
  master list distance cutoff = 13
  ghost atom cutoff = 13
  binsize = 6.5, bins = 7 7 7
  1 neighbor lists, perpetual/occasional/extra = 1 0 0
  (1) pair lj/cut/coul/long, perpetual
      attributes: half, newton on
      pair build: half/bin/newton
      stencil: half/bin/3d/newton
      bin: standard
Per MPI rank memory allocation (min/avg/max) = 23.38 | 23.65 | 24.02 Mbytes
Step Temp E_pair E_mol TotEng Press 
       0            0    6998.7218    518.88232    7517.6042    30550.335 
     396            0   -1519.2652    230.68275   -1288.5825   -411.47218 
Loop time of 13.684 on 48 procs for 396 steps with 2100 atoms

28.2% CPU use with 48 MPI tasks x 1 OpenMP threads

Minimization stats:
  Stopping criterion = energy tolerance
  Energy initial, next-to-last, final = 
          7517.6041526     -1288.46470414     -1288.58245594
  Force two-norm initial, final = 6658.71 20.36
  Force max component initial, final = 1635.62 2.83291
  Final line search alpha, max atom move = 0.00525173 0.0148777
  Iterations, force evaluations = 396 776

MPI task timing breakdown:
Section |  min time  |  avg time  |  max time  |%varavg| %total
---------------------------------------------------------------
Pair    | 0.0053692  | 0.22903    | 1.1061     |  47.6 |  1.67
Bond    | 0.00052685 | 0.018922   | 0.067897   |  11.3 |  0.14
Kspace  | 2.3748     | 3.2927     | 3.813      |  19.9 | 24.06
Neigh   | 0.24887    | 0.34708    | 0.40674    |  10.1 |  2.54
Comm    | 2.8351     | 3.5241     | 4.5926     |  24.3 | 25.75
Output  | 0          | 0          | 0          |   0.0 |  0.00
Modify  | 0          | 0          | 0          |   0.0 |  0.00
Other   |            | 6.272      |            |       | 45.84

Nlocal:    43.75 ave 120 max 3 min
Histogram: 9 9 4 7 7 6 2 0 3 1
Nghost:    1617.77 ave 1734 max 1477 min
Histogram: 4 2 2 6 7 3 7 10 3 4
Neighs:    9037.23 ave 42846 max 214 min
Histogram: 21 8 9 4 0 2 1 2 0 1

Total # of neighbors = 433787
Ave neighs/atom = 206.565
Ave special neighs/atom = 8.14286
Neighbor list builds = 31
Dangerous builds = 0
#velocity	all create ${simulationTemp} 886874 mom yes rot yes dist gaussian

velocity        all create  ${simulationTemp} 317879265 units box
velocity        all create  310 317879265 units box
velocity        all zero linear units box

# The 'velocity' command line above assigns initial velocities to the atoms in our data file, see the LAMMPS 'velocity' command
# The number '886874' is the seed number which helps LAMMPS to consistently assign the same randomized velocities for the same simulation with the same seed number
# Changing that seed number for your simulation of a given system is one easy way to run an 'independent' simulation of the same system as taught in class
# You will need to do this for your homework

thermo_style    custom step vol temp press ke pe etotal enthalpy evdwl ecoul epair ebond eangle edihed eimp emol elong etail lx ly lz xy xz yz density
thermo          ${thermofreq}
thermo          1000

fix npt_density all npt temp ${simulationTemp} ${simulationTemp} 100 iso ${simulationPress} ${simulationPress} 1000
fix npt_density all npt temp 310 ${simulationTemp} 100 iso ${simulationPress} ${simulationPress} 1000
fix npt_density all npt temp 310 310 100 iso ${simulationPress} ${simulationPress} 1000
fix npt_density all npt temp 310 310 100 iso 0.987 ${simulationPress} 1000
fix npt_density all npt temp 310 310 100 iso 0.987 0.987 1000

run 50000
Ewald initialization ...
  using 12-bit tables for long-range coulomb (src/kspace.cpp:332)
  G vector (1/distance) = 0.152552
  estimated absolute RMS force accuracy = 0.0356093
  estimated relative force accuracy = 0.000107236
  KSpace vectors: actual max1d max3d = 128 4 364
                  kxmax kymax kzmax  = 4 4 4
Per MPI rank memory allocation (min/avg/max) = 22.38 | 22.55 | 22.89 Mbytes
Step Volume Temp Press KinEng PotEng TotEng Enthalpy E_vdwl E_coul E_pair E_bond E_angle E_dihed E_impro E_mol E_long E_tail Lx Ly Lz Xy Xz Yz Density 
     396        64000          310    973.88357    1939.5833   -1288.5825    651.00084    1559.9988   -1018.5488    1406.6996   -1519.2652    8.4275223     75.48309    146.77214            0    230.68275   -1907.4159   -20.510966           40           40           40            0            0            0   0.49949522 
    1000    66649.757    298.26273    600.74326    1866.1465    544.11693    2410.2634    2994.1969   -712.96981    1496.5425   -1112.8635    599.79868    814.59599    242.58579            0    1656.9805   -1896.4362   -19.695523    40.544585    40.544585    40.544585            0            0            0   0.47963707 
    2000    62017.371    314.75762    903.15764    1969.3504    596.64949    2565.9999    3382.8696   -634.66657    1530.5708   -1045.8321    579.57563    816.80685     246.0991            0    1642.4816   -1941.7363   -21.166679    39.582612    39.582612    39.582612            0            0            0   0.51546354 
    3000    57543.775     310.6185    228.34572    1943.4531    621.60866    2565.0617    2756.6933   -643.92206    1532.3169   -1084.0127    580.72745    861.15288    263.74108            0    1705.6214   -1972.4076    -22.81223    38.607005    38.607005    38.607005            0            0            0   0.55553696 
    4000    56197.804    310.54321     642.7476     1942.982    577.95233    2520.9343    3047.7221   -661.70079    1533.9566   -1108.2671    578.29813    856.14484    251.77642            0    1686.2194   -1980.5229   -23.358596    38.303617    38.303617    38.303617            0            0            0    0.5688424 
    5000     56081.63    313.88134   -9.0385623    1963.8677    580.59388    2544.4616     2537.069   -680.98364    1526.5949   -1138.1153    613.86342    858.74422    246.10153            0    1718.7092   -1983.7266   -23.406984    38.277204    38.277204    38.277204            0            0            0   0.57002077 
    6000    54091.723    302.49104   -221.29328    1892.6018     569.1943    2461.7961     2287.224   -683.91243    1510.0193   -1168.5287    603.49593    871.14062     263.0864            0     1737.723   -1994.6355   -24.268072072     37.81902     37.81902     37.81902            0            0            0   0.59099049 
    7000    52578.791    310.80038     149.4458     1944.591    527.69367    2472.2847    2586.8809   -702.28885    1538.2596     -1172.21    563.72328    884.67738    251.50297            0    1699.9036   -2008.1808   -24.966375    37.463084    37.463084    37.463084            0            0            0   0.60799599 
    8000    50852.526    315.70815    240.23256    1975.2976    479.42563    2454.7232    2632.8873   -726.84088    1518.3794   -1230.4664    584.46728    882.29934    243.12544            0    1709.8921   -2022.0049   -25.813896    37.048518    37.048518    37.048518            0            0            0   0.62863532 
    9000    52173.597    309.58351    37.855451    1936.9774    548.03778    2485.0152    2513.8194   -723.15144    1538.8544   -1195.5767    587.73248    910.59773    245.28431            0    1743.6145   -2011.2797   -25.160271    37.366601    37.366601    37.366601            0            0            0   0.61271785 
   10000    50135.445    301.80802   -41.120294    1888.3284    442.20485    2330.5332    2300.4671   -727.52792    1522.9949   -1232.7966    560.47796    881.63952    232.88397            0    1675.0015   -2028.2636   -26.183109    36.873551    36.873551    36.873551            0            0            0   0.63762661 
   11000    49749.253    307.48517   -645.80261    1923.8487    455.04712    2378.8959     1910.339   -717.86371    1519.3683   -1228.6232    564.58279    882.87068     236.2168            0    1683.6703   -2030.1278   -26.386362    36.778628    36.778628    36.778628            0            0            0   0.64257635 
   12000    49046.215    298.04779   -823.08451    1864.8017    483.81208    2348.6137    1759.8707   -755.60191    1560.8134   -1233.1338      598.726    882.30673    235.91316            0    1716.9459   -2038.3453    -26.76459    36.604558    36.604558    36.604558            0            0            0   0.65178718 
   13000    46722.814    306.45876   -493.52998    1917.4268     394.3114    2311.7382    1975.4447   -794.01587    1552.2453   -1302.7448    592.27419    866.12858    238.65344            0    1697.0562   -2060.9742   -28.095522    36.017176    36.017176    36.017176            0            0            0   0.68419882 
   14000    47439.239     317.2019    -127.3441    1984.6436    510.28954    2494.9331    2406.8298   -745.84879    1524.2606   -1273.6586    614.91379    918.72023    250.31408            0    1783.9481   -2052.0704   -27.671225    36.200333    36.200333    36.200333            0            0            0   0.67386608 
   15000    46630.802    309.40937    300.76543    1935.8879    388.53043    2324.4183    2528.9576   -771.01596    1540.5498    -1289.089    577.30523     877.1516    223.16256            0    1677.6194   -2058.6228    -28.15096    35.993518    35.993518    35.993518            0            0            0   0.68554888 
   16000    47541.051    307.89243    811.44151    1926.3968    393.54286    2319.9397    2882.5425   -768.18077    1562.0744   -1256.7875    558.56401    877.31022    214.45611            0    1650.3303   -2050.6811   -27.611964    36.226212    36.226212    36.226212            0            0            0   0.67242294 
   17000    44750.637     313.6071    541.54527    1962.1519    257.96448    2220.1164    2573.5517    -818.5136    1528.2352    -1365.445    587.34514    810.42591    225.63843            0    1623.4095   -2075.1666   -29.333701    35.503111    35.503111    35.503111            0            0            0   0.71435171 
   18000    45464.798    302.84475    -650.7354    1894.8149    399.06318    2293.8781    1862.4031   -794.49256    1536.5749   -1326.3333    597.92872    905.01546    222.45235            0    1725.3965   -2068.4157   -28.872928    35.690976    35.690976    35.690976            0            0            0   0.70313067 
   19000    44767.621    314.09313    -310.6445    1965.1929    273.61143    2238.8043    2035.9877   -805.96659    1517.8375   -1365.8451    562.76312    865.77456    210.91889            0    1639.4566    -2077.716   -29.322573    35.507602    35.507602    35.507602            0            0            0    0.7140807 
   20000    44812.389    298.32604    1362.7933    1866.5426    333.15566    2199.6982    3090.3419   -797.82548    1554.4339    -1321.713    612.81928    835.53536    206.51405            0    1654.8687   -2078.3215   -29.293279    35.519434    35.519434    35.519434            0            0            0   0.71336732 
   21000    46785.595    313.87936   -78.510754    1963.8554    348.12479    2311.9802    2258.4107   -784.65607    1507.1996   -1331.8438    581.59965    880.94349    217.42542            0    1679.9686   -2054.3873    -28.05782    36.033301    36.033301    36.033301            0            0            0    0.6832807 
   22000    47406.017    311.54998   -348.95878    1949.2811    399.93246    2349.2135    2107.9546   -756.94633    1496.8831   -1309.7214    631.55577    867.15401    210.94404            0    1709.6538   -2049.6581   -27.690616    36.191881    36.191881    36.191881            0            0            0   0.67433832 
   23000     46095.06    308.02245    375.74013    1927.2103    326.65137    2253.8617    2506.4526   -788.50432    1515.2943   -1339.9022    578.71312    867.50199     220.3385            0    1666.5536   -2066.6922   -28.478146    35.855143    35.855143    35.855143            0            0            0    0.6935167 
   24000    46312.652    314.24193   -226.14781    1966.1239    390.87566    2356.9995    2204.2542   -764.54533    1513.3082   -1312.8257    610.78205    872.76404    220.15528            0    1703.7014   -2061.5886   -28.344346    35.911473    35.911473    35.911473            0            0            0   0.69025834 
   25000    44495.533    305.03834   -253.75008    1908.5395    367.57348     2276.113    2111.4491   -810.68923    1537.0103   -1355.0129    614.94161    902.96424    204.68049            0    1722.5863   -2081.3339   -29.501879    35.435519    35.435519    35.435519            0            0            0   0.71844727 
   26000    44229.612     305.7275    610.68887    1912.8515    376.59423    2289.4457    2683.3666   -801.38288     1520.871   -1363.9107    616.17606    895.29997    229.02891            0    1740.5049   -2083.3989   -29.679252    35.364787    35.364787    35.364787            0            0            0   0.72276677 
   27000    43214.872    303.26543    62.638385     1897.447    319.52799     2216.975    2256.4525   -821.02314    1521.3485    -1392.366    587.29827    913.17768    211.41806            0     1711.894   -2092.6913   -30.376159    35.092239    35.092239    35.092239            0            0            0   0.73973826 
   28000    43022.055    315.26111    345.90197    1972.5006    265.01935    2237.5199    2454.5501   -829.60785    1506.0273   -1421.5643    592.77085    872.62341    221.18936            0    1686.5836   -2097.9837     -30.5123    35.039969    35.039969    35.039969            0            0            0   0.74305363 
   29000     43954.32    317.47985    812.38621    1986.3826    252.82813    2239.2108    2759.9736   -794.05733    1489.4165   -1393.5226    591.41633    856.12658    198.80785            0    1646.3508   -2088.8818   -29.865137    35.291262    35.291262    35.291262            0            0            0   0.72729355 
   30000    42771.314    305.10201    128.39039    1908.9379    223.51446    2132.4524    2212.5392   -840.03809    1512.4739   -1425.2569    595.83575    831.83427     221.1013            0    1648.7713   -2097.6926   -30.691174    34.971763    34.971763    34.971763            0            0            0   0.74740968 
   31000    42212.263    302.46779   -508.43399    1892.4563    231.37258    2123.8289    1810.8255   -854.01239    1509.2258    -1451.861    585.50842    891.60773    206.11745            0    1683.2336   -2107.0744   -31.097642    34.818726    34.818726    34.818726            0            0            0   0.75730822 
   32000     42486.32    300.16667    236.52544    1878.0589    241.18951    2119.2484    2265.8042   -833.21824    1490.0042   -1446.3546    609.99077    870.06764     207.4857            0    1687.5441   -2103.1405   -30.897047    34.893916    34.893916    34.893916            0            0            0   0.75242322 
   33000     41213.63    310.56058   -477.24225    1943.0907    201.90534     2144.996    1858.1455   -851.83897    1484.4875   -1487.2153    595.45499    884.75467      208.911            0    1689.1207   -2119.8638   -31.851157    34.541958    34.541958    34.541958            0            0            0   0.77565828 
   34000    40698.924    302.98618    888.25437    1895.6998     193.3287    2089.0285    2616.2537   -870.13275    1518.7005   -1477.2019    598.92145    869.27229    202.33688            0    1670.5306   -2125.7697   -32.253969     34.39756     34.39756     34.39756            0            0            0    0.7854678 
   35000    38673.435    298.48448   -902.40161    1867.5339    152.49514     2020.029    1511.0633   -908.22207     1517.026   -1540.0545    617.01492    863.74078    211.79396            0    1692.5497   -2148.8585   -33.943243    33.817195    33.817195    33.817195            0            0            0     0.826606 
   36000    38997.411    306.54602    988.69137    1917.9727    180.78937     2098.762    2661.0677   -895.83786    1537.7569   -1500.9013    587.54835    884.34941    209.79291            0    1681.6907   -2142.8204   -33.661255    33.911364    33.911364    33.911364            0            0            0   0.81973886 
   37000    39844.016    312.29669   -660.54695    1953.9531    228.69753    2182.6506    1798.8172   -873.21696    1535.6458   -1475.2378    630.38558    866.92875    206.62095            0    1703.9353   -2137.6666   -32.946021    34.155006    34.155006    34.155006            0            0            0   0.80232107 
   38000    38050.875    310.47457   -389.44754    1942.5525    186.28504    2128.8376    1912.7203   -906.92424    1522.1593   -1543.9198     612.1835    905.37915    212.64222            0    1730.2049   -2159.1549   -34.498598    33.634751    33.634751    33.634751            0            0            0   0.84013032 
   39000    38889.126    308.83968   -637.39859    1932.3235    231.97927    2164.3027     1802.797   -887.70949    1532.1489   -1502.9259    630.52581    892.33863    212.04068            0    1734.9051   -2147.3653   -33.754984    33.879947    33.879947    33.879947            0            0            0    0.8220214 
   40000    39179.588    313.39876   -15.518115    1960.8484    262.78879    2223.6372    2214.7702   -872.45226    1556.3214   -1459.9094     623.8978     886.8559    211.94445            0    1722.6981   -2143.7785   -33.504738    33.964088    33.964088    33.964088            0            0            0   0.81592726 
   41000    39362.502    308.25539   -183.84107    1928.6677    190.37552    2119.0433    2013.5071   -880.77947    1545.6986   -1478.2232     601.8181      868.006    198.77462            0    1668.5987   -2143.1424   -33.349044    34.016861    34.016861    34.016861            0            0            0   0.81213571 
   42000    38285.929    308.52211    1049.7317    1930.3366    94.426801    2024.7634    2610.8926   -900.37752    1537.6931   -1519.9353    559.91006    850.02262    204.42945            0    1614.3621   -2157.2509   -34.286795    33.703867    33.703867    33.703867            0            0            0   0.83497239 
   43000     37314.75    315.94968    -219.5735    1976.8087    101.42349    2078.2322    1958.7409   -929.54563    1534.7167    -1564.377    598.17758    848.99465    218.62825            0    1665.8005    -2169.548   -35.179167     33.41644     33.41644     33.41644            0            0            0   0.85670394 
   44000    37688.186      313.871    1314.4377    1963.8031    121.36237    2085.1654    2807.6376   -895.44169    1529.9779   -1531.7467    588.71886    874.51925    189.87096            0    1653.1091   -2166.2829   -34.830592    33.527544    33.527544    33.527544            0            0            0   0.84821525 
   45000    36916.178    318.69157   -277.51352     1993.964    96.443862    2090.4079    1940.9989   -948.65177    1555.0086   -1571.8276    594.55497    872.97498    200.74149            0    1668.2714   -2178.1844   -35.558985    33.297036    33.297036    33.297036            0            0            0   0.86595351 
   46000    37239.336    310.44251   -544.38679    1942.3519    111.19109     2053.543    1757.8879   -924.07826    1545.6164   -1553.2822    620.74131    837.88216    205.84983            0    1664.4733   -2174.8203   -35.250409    33.393913    33.393913    33.393913            0            0            0   0.85843888 
   47000    38542.356    309.38876   -20.737726    1935.7589    139.78435    2075.5433    2063.8866   -909.06657    1543.9726   -1519.9164    604.75323    848.23738    206.71014            0    1659.7008   -2154.8225   -34.058681    33.778945    33.778945    33.778945            0            0            0   0.82941722 
   48000    36700.939    300.92955    130.62362     1882.832     106.0909    1988.9229    2058.8386   -984.05111    1564.3882   -1599.3604    619.48141    888.05103    197.91887            0    1705.4513   -2179.6975   -35.767527    33.232197    33.232197    33.232197            0            0            0   0.87103205 
   49000    37486.299    309.98959   -1516.1385    1939.5181    168.54483     2108.063    1279.1912   -967.46707    1562.1663   -1573.7764     609.7866    919.30918    213.22542            0    1742.3212   -2168.4756   -35.018176    33.467571    33.467571    33.467571            0            0            0   0.85278341 
   50000    37951.083    313.75677   -563.42949    1963.0884    103.12843    2066.2168    1754.3712   -949.78081     1547.003   -1563.1788     590.3496    873.55837    202.39928            0    1666.3073    -2160.401   -34.589312    33.605322    33.605322    33.605322            0            0            0   0.84233945 
   50396    38056.644    307.29243    -156.1777    1922.6428    116.68311    2039.3259    1952.6446   -933.00164    1545.5369   -1549.8451    607.59698    856.76204    202.16921            0    1666.5282   -2162.3804   -34.493368    33.636451    33.636451    33.636451            0            0            0   0.84000296 
Loop time of 119.776 on 48 procs for 50000 steps with 2100 atoms

Performance: 36.067 ns/day, 0.665 hours/ns, 417.445 timesteps/s
39.9% CPU use with 48 MPI tasks x 1 OpenMP threads

MPI task timing breakdown:
Section |  min time  |  avg time  |  max time  |%varavg| %total
---------------------------------------------------------------
Pair    | 4.183      | 13.413     | 27.374     | 163.8 | 11.20
Bond    | 0.17176    | 1.3142     | 2.7625     |  58.9 |  1.10
Kspace  | 17.924     | 33.54      | 42.757     | 113.4 | 28.00
Neigh   | 5.12       | 5.6757     | 6.1585     |  14.0 |  4.74
Comm    | 32.568     | 37.426     | 43.694     |  40.1 | 31.25
Output  | 0.057653   | 0.058457   | 0.067931   |   0.6 |  0.05
Modify  | 18.59      | 22.89      | 25.892     |  34.6 | 19.11
Other   |            | 5.458      |            |       |  4.56

Nlocal:    43.75 ave 73 max 14 min
Histogram: 3 3 5 4 1 16 8 5 2 1
Nghost:    2363.69 ave 2457 max 2242 min
Histogram: 3 4 7 1 1 3 10 8 8 3
Neighs:    11400.1 ave 20758 max 2272 min
Histogram: 2 4 4 5 6 11 9 3 1 3

Total # of neighbors = 547205
Ave neighs/atom = 260.574
Ave special neighs/atom = 8.14286
Neighbor list builds = 5134
Dangerous builds = 0

unfix npt_density

fix reshape_box all deform 1 x final 0.0 36.6857 y final 0.0 36.6857 z final 0.0 36.6857 units box

run 100000
Ewald initialization ...
  using 12-bit tables for long-range coulomb (src/kspace.cpp:332)
  G vector (1/distance) = 0.158357
  estimated absolute RMS force accuracy = 0.0334735
  estimated relative force accuracy = 0.000100804
  KSpace vectors: actual max1d max3d = 128 4 364
                  kxmax kymax kzmax  = 4 4 4
Per MPI rank memory allocation (min/avg/max) = 22.41 | 22.74 | 22.91 Mbytes
Step Volume Temp Press KinEng PotEng TotEng Enthalpy E_vdwl E_coul E_pair E_bond E_angle E_dihed E_impro E_mol E_long E_tail Lx Ly Lz Xy Xz Yz Density 
   50396    38056.644    307.29243   -205.62997    1922.6428     120.2747    2042.9175    1928.7894   -933.00164    1572.5263   -1546.2535    607.59698    856.76204    202.16921            0    1666.5282   -2185.7782   -34.493368    33.636451    33.636451    33.636451            0            0            0   0.84000296 
   51000    38119.192    307.29243   -883.97443    1922.6428    123.51278    2046.1556    1554.7283   -933.93845    1571.9272    -1546.975    611.55656    856.76204    202.16921            0    1670.4878   -2184.9638    -34.43677    33.654868    33.654868    33.654868            0            0            0   0.83862466 
   52000    38222.897    307.29243   -2002.6809    1922.6428    130.64539    2053.2882    936.91025   -935.42676    1571.3445   -1547.6993    619.41348    856.76204    202.16921            0    1678.3447   -2183.6171   -34.343336    33.685361    33.685361    33.685361            0            0            0   0.83634931 
   53000    38326.791    307.29243   -3118.0823    1922.6428    139.15482    2061.7976     318.9239   -936.83347    1570.4518   -1548.6569    628.88042    856.76204    202.16921            0    1687.8117   -2182.2752   -34.250241    33.715853    33.715853    33.715853            0            0            0   0.83408219 
   54000    38430.873    307.29243   -4227.5656    1922.6428     149.5282     2072.171   -297.27323   -938.16299    1569.7406   -1549.3605     639.9574    856.76204    202.16921            0    1698.8887   -2180.9381   -34.157481    33.746346    33.746346    33.746346            0            0            0   0.83182325 
   55000    38535.143    307.29243   -5333.6277    1922.6428    161.30765    2083.9505   -913.52453   -939.41502    1568.7527    -1550.268    652.64441    856.76204    202.16921            0    1711.5757   -2179.6057   -34.065056    33.776838    33.776838    33.776838            0            0            0   0.82957247 
   56000    38639.602    307.29243   -6432.9727    1922.6428    175.11564    2097.7585   -1527.3436   -940.58065    1568.1017   -1550.7571    666.94146    856.76204    202.16921            0    1725.8727   -2178.2781   -33.972964    33.807331    33.807331    33.807331            0            0            0   0.82732979 
   57000    38744.249    307.29243    -7526.593    1922.6428    190.76726    2113.4101   -2139.4546   -941.68039     1567.623   -1551.0125    682.84853    856.76204    202.16921            0    1741.7798   -2176.9552   -33.881204    33.837823    33.837823    33.837823            0            0            0    0.8250952 
   58000    38849.085    307.29243   -8618.3579    1922.6428    207.54327    2130.1861   -2752.7519   -942.71176    1566.5951   -1551.7536    700.36564    856.76204    202.16921            0    1759.2969    -2175.637   -33.789774    33.868316    33.868316    33.868316            0            0            0   0.82286864 
   59000     38954.11    307.29243    -9703.392    1922.6428    226.36469    2149.0075   -3363.5452   -943.67147    1565.9356   -1552.0593    719.49277    856.76204    202.16921            0     1778.424   -2174.3234   -33.698673    33.898808    33.898808    33.898808            0            0            0   0.82065009 
   60000    39059.324    307.29243    -10784.58    1922.6428    246.69719      2169.34   -3973.9902   -944.55315    1565.1037    -1552.464    740.22995    856.76204    202.16921            0    1799.1612   -2173.0146   -33.607899    33.929301    33.929301    33.929301            0            0            0   0.81843951 
   61000    39164.727    307.29243   -11859.818    1922.6428    268.93984    2191.5827   -4582.4768   -945.36729    1564.5091   -1552.5686    762.57715    856.76204    202.16921            0    1821.5084   -2171.7103   -33.517451    33.959793    33.959793    33.959793            0            0            0   0.81623686 
   62000     39270.32    307.29243   -12931.749    1922.6428    292.59833    2215.2411   -5190.9955   -946.11152    1563.6549   -1552.8673    786.53438    856.76204    202.16921            0    1845.4656   -2170.4107   -33.427327    33.990286    33.990286    33.990286            0            0            0    0.8140421 
   63000    39376.102    307.29243   -14000.881    1922.6428    317.57942    2240.2222   -5799.9247   -946.78617    1562.4484   -1553.4535    812.10165    856.76204    202.16921            0    1871.0329   -2169.1157   -33.337526    34.020778    34.020778    34.020778            0            0            0   0.81185521 
   64000    39482.075    307.29243   -15061.386    1922.6428    344.99668    2267.6395   -6404.7904   -947.39747    1562.0092   -1553.2135    839.27895    856.76204    202.16921            0    1898.2102   -2167.8252   -33.248046    34.051271    34.051271    34.051271            0            0            0   0.80967614 
   65000    39588.237    307.29243   -16117.786    1922.6428    373.99387    2296.6367   -7009.0285   -947.94846    1561.4841   -1553.0037    868.06628    856.76204    202.16921            0    1926.9975   -2166.5393   -33.158886    34.081763    34.081763    34.081763            0            0            0   0.80750487 
   66000    39694.589    307.29243    -17169.88    1922.6428    404.61579    2327.2586   -7612.4683   -948.43416     1560.913   -1552.7791    898.46364    856.76204    202.16921            0    1957.3949    -2165.258   -33.070044    34.112256    34.112256    34.112256            0            0            0   0.80534135 
   67000    39801.132    307.29243   -18216.497    1922.6428    437.08928    2359.7321   -8214.1917   -948.86506    1560.5332    -1552.313    930.47104    856.76204    202.16921            0    1989.4023   -2163.9811    -32.98152    34.142748    34.142748    34.142748            0            0            0   0.80318555 
   68000    39907.865    307.29243   -19259.513    1922.6428    471.05833    2393.7011   -8815.6298   -949.24193    1559.9893   -1551.9614    964.08846    856.76204    202.16921            0    2023.0197   -2162.7088   -32.893311    34.173241    34.173241    34.173241            0            0            0   0.80103744 
   69000    40014.788    307.29243   -20297.149    1922.6428    506.87847    2429.5213     -9415.38   -949.54419    1559.6164   -1551.3687    999.31592    856.76204    202.16921            0    2058.2472   -2161.4409   -32.805417    34.203733    34.203733    34.203733            0            0            0   0.79889699 
   70000    40121.903    307.29243   -21332.569    1922.6428    543.93755    2466.5804   -10015.891   -949.78405    1558.8144   -1551.1471    1036.1534    856.76204    202.16921            0    2095.0847   -2160.1775   -32.717836    34.234226    34.234226    34.234226            0            0            0   0.79676415 
   71000    40229.208    307.29243   -22363.964    1922.6428    582.58846    2505.2313   -10615.746   -949.96598    1557.9407   -1550.9437    1074.6009    856.76204    202.16921            0    2133.5322   -2158.9185   -32.630566    34.264718    34.264718    34.264718            0            0            0    0.7946389 
   72000    40336.705    307.29243   -23391.283    1922.6428    622.84542    2545.4882   -11214.889   -950.09069    1557.0103   -1550.7443    1114.6585    856.76204    202.16921            0    2173.5897   -2157.6639   -32.543606    34.295211    34.295211    34.295211            0            0            0    0.7925212 
   73000    40444.393    307.29243   -24412.943    1922.6428    665.01815     2587.661   -11812.069   -950.16992    1556.3444   -1550.2392    1156.3261    856.76204    202.16921            0    2215.2573   -2156.4137   -32.456954    34.325703    34.325703    34.325703            0            0            0   0.79041102 
   74000    40552.272    307.29243   -25430.212    1922.6428    708.87065    2631.5135   -12408.252    -950.1874     1555.691   -1549.6643    1199.6037    856.76204    202.16921            0    2258.5349   -2155.1679   -32.370611    34.356196    34.356196    34.356196            0            0            0   0.78830832 
   75000    40660.344    307.29243    -26442.69    1922.6428    754.48092    2677.1237   -13003.111   -950.15912    1555.1439   -1548.9417    1244.4913    856.76204    202.16921            0    2303.4226   -2153.9264   -32.284573    34.386688    34.386688    34.386688            0            0            0   0.78621308 
   76000    40768.607    307.29243   -27449.518    1922.6428    802.02837    2724.6712   -13595.942   -950.07098    1554.8684   -1547.8919     1290.989    856.76204    202.16921            0    2349.9203   -2152.6893    -32.19884     34.41718     34.41718     34.41718            0            0            0   0.78412525 
   77000    40877.062    307.29243     -28453.3    1922.6428    851.00085    2773.6437   -14188.792   -949.93536    1554.3647   -1547.0272    1339.0967    856.76204    202.16921            0     2398.028   -2151.4565    -32.11341    34.447673    34.447673    34.447673            0            0            0   0.78204481 
   78000    40985.709    307.29243   -29451.802    1922.6428    901.84669    2824.4895    -14779.87   -949.74581    1554.0748   -1545.8991    1388.8145    856.76204    202.16921            0    2447.7457    -2150.228   -32.028282    34.478165    34.478165    34.478165            0            0            0   0.77997172 
   79000    41094.548    307.29243   -30448.372    1922.6428    953.90275    2876.5456   -15371.829   -949.51454    1553.3475   -1545.1708    1440.1423    856.76204    202.16921            0    2499.0735   -2149.0038   -31.943454    34.508658    34.508658    34.508658            0            0            0   0.77790596 
   80000     41203.58    307.29243   -31441.585    1922.6428    1007.4613    2930.1042    -15963.52   -949.22156    1552.4554     -1544.55    1493.0801    856.76204    202.16921            0    2552.0113   -2147.7838   -31.858926     34.53915     34.53915     34.53915            0            0            0   0.77584748 
   81000    41312.805    307.29243   -32431.057    1922.6428    1062.5971    2985.2399    -16554.63   -948.88415    1551.4902   -1543.9621    1547.6279    856.76204    202.16921            0    2606.5592   -2146.5681   -31.774696    34.569643    34.569643    34.569643            0            0            0   0.77379626 
   82000    41422.222    307.29243   -33415.093    1922.6428    1119.6574    3042.3002   -17143.778   -948.48966    1550.7866   -1543.0596    1603.7858    856.76204    202.16921            0    2662.7171   -2145.3566   -31.690763    34.600135    34.600135    34.600135            0            0            0   0.77175226 
   83000    41531.833    307.29243   -34394.401    1922.6428    1178.4981    3101.1409    -17731.52   -948.06358     1550.226   -1541.9869    1661.5537    856.76204    202.16921            0     2720.485   -2144.1493   -31.607125    34.630628    34.630628    34.630628            0            0            0   0.76971546 
   84000    41641.637    307.29243   -35368.881    1922.6428    1239.1497    3161.7925   -18317.749    -947.5913    1549.8243   -1540.7132    1720.9316    856.76204    202.16921            0    2779.8629   -2142.9462   -31.523781     34.66112     34.66112     34.66112            0            0            0   0.76768581 
   85000    41751.634    307.29243    -36340.95    1922.6428    1301.1312     3223.774   -18904.403   -947.06959    1549.0972   -1539.7197    1781.9196    856.76204    202.16921            0    2840.8509   -2141.7473   -31.440729    34.691613    34.691613    34.691613            0            0            0    0.7656633 
   86000    41861.825    307.29243    -37308.69    1922.6428    1364.8306    3287.4734   -19489.921   -946.50485     1548.439   -1538.6183    1844.5176    856.76204    202.16921            0    2903.4489   -2140.5525    -31.35797    34.722105    34.722105    34.722105            0            0            0   0.76364789 
   87000    41972.209    307.29243    -38273.29    1922.6428    1430.0118    3352.6546   -20075.253   -945.89766    1547.6143   -1537.6451    1908.7257    856.76204    202.16921            0    2967.6569   -2139.3618     -31.2755    34.752598    34.752598    34.752598            0            0            0   0.76163954 
   88000    42082.787    307.29243    -39234.27    1922.6428    1496.7779    3419.4207   -20659.996   -945.24037    1546.7185   -1536.6971    1974.5437    856.76204    202.16921            0     3033.475   -2138.1753   -31.193319     34.78309     34.78309     34.78309            0            0            0   0.75963823 
   89000     42193.56    307.29243   -40191.661    1922.6428    1565.1212     3487.764   -21244.166   -944.54971    1545.7606   -1535.7819    2041.9718    856.76204    202.16921            0    3100.9031   -2136.9928   -31.111426    34.813583    34.813583    34.813583            0            0            0   0.75764392 
   90000    42304.526    307.29243    -41143.21    1922.6428    1635.5085    3558.1513   -21825.897   -943.81962    1545.2013   -1534.4327      2111.01    856.76204    202.16921            0    3169.9412   -2135.8144    -31.02982    34.844075    34.844075    34.844075            0            0            0   0.75565659 
   91000    42415.687    307.29243   -42090.561    1922.6428    1707.6089    3630.2517   -22406.518   -943.05099    1544.7107   -1532.9805    2181.6581    856.76204    202.16921            0    3240.5894   -2134.6401   -30.948498    34.874568    34.874568    34.874568            0            0            0    0.7536762 
   92000    42527.042    307.29243   -43033.766    1922.6428    1781.4165    3704.0593   -22986.055   -942.24444    1544.2832   -1531.4311    2253.9163    856.76204    202.16921            0    3312.8476   -2133.4699   -30.867461     34.90506     34.90506     34.90506            0            0            0   0.75170273 
   93000    42638.593    307.29243   -43974.631    1922.6428     1856.566    3779.2088   -23565.982   -941.39439    1543.5482   -1530.1498    2327.7845    856.76204    202.16921            0    3386.7158   -2132.3036   -30.786706    34.935553    34.935553    34.935553            0            0            0   0.74973614 
   94000    42750.338    307.29243   -44910.722    1922.6428    1933.5606    3856.2034   -24144.277   -940.50583    1543.0137   -1528.6335    2403.2628    856.76204    202.16921            0    3462.1941   -2131.1414   -30.706233    34.966045    34.966045    34.966045            0            0            0    0.7477764 
   95000    42862.278    307.29243   -45844.716    1922.6428    2011.8485    3934.4913   -24723.148   -939.58736    1542.1366   -1527.4338    2480.3511    856.76204    202.16921            0    3539.2823   -2129.9831    -30.62604    34.996538    34.996538    34.996538            0            0            0   0.74582349 
   96000    42974.413    307.29243   -46772.834    1922.6428     2092.218    4014.8608    -25299.44   -938.63358    1541.6998   -1525.7627    2559.0494    856.76204    202.16921            0    3617.9807   -2128.8288   -30.546125     35.02703     35.02703     35.02703            0            0            0   0.74387738 
   97000    43086.744    307.29243   -47697.713    1922.6428    2174.1275    4096.7703   -25875.326   -937.64451    1541.1615   -1524.1615    2639.3578    856.76204    202.16921            0     3698.289   -2127.6785   -30.466489    35.057523    35.057523    35.057523            0            0            0   0.74193803 
   98000     43199.27    307.29243   -48617.418    1922.6428    2257.9838    4180.6266   -26449.176   -936.62064    1540.9292   -1522.2236    2721.2762    856.76204    202.16921            0    3780.2074   -2126.5321   -30.387129    35.088015    35.088015    35.088015            0            0            0   0.74000541 
   99000    43311.993    307.29243   -49535.226    1922.6428    2343.1062     4265.749   -27023.721   -935.56515    1540.3252   -1520.6296    2804.8046    856.76204    202.16921            0    3863.7358   -2125.3897   -30.308045    35.118508    35.118508    35.118508            0            0            0    0.7380795 
  100000    43424.911    307.29243   -50448.214    1922.6428    2430.1111    4352.7539   -27596.492   -934.47532    1539.9633   -1518.7632     2889.943    856.76204    202.16921            0    3948.8743   -2124.2511   -30.229235       35.149       35.149       35.149            0            0            0   0.73616027 
  101000    43538.025    307.29243   -51358.621    1922.6428    2518.5347    4441.1775   -28169.361    -933.3441    1539.3724   -1517.0881    2976.6915    856.76204    202.16921            0    4035.6228   -2123.1164   -30.150698    35.179493    35.179493    35.179493            0            0            0   0.73424768 
  102000    43651.335    307.29243   -52264.456    1922.6428    2608.7948    4531.4377   -28740.635   -932.18704    1538.9862   -1515.1864      3065.05    856.76204    202.16921            0    4123.9813   -2121.9856   -30.072432    35.209985    35.209985    35.209985            0            0            0   0.73234172 
  103000    43764.842    307.29243   -53167.249    1922.6428    2700.5735    4623.2163   -29311.596   -931.00284    1538.4852   -1513.3764    3155.0186    856.76204    202.16921            0    4213.9498   -2120.8587   -29.994438    35.240478    35.240478    35.240478            0            0            0   0.73044235 
  104000    43878.545    307.29243   -54067.168    1922.6428    2793.8397    4716.4825   -29882.373   -929.78795    1537.8347   -1511.6888    3246.5972    856.76204    202.16921            0    4305.5284   -2119.7356   -29.916712     35.27097     35.27097     35.27097            0            0            0   0.72854954 
  105000    43992.446    307.29243    -54962.62    1922.6428    2888.9344    4811.5772   -30451.599    -928.5431    1537.3767   -1509.7827    3339.7858    856.76204    202.16921            0     4398.717   -2118.6163   -29.839255    35.301463    35.301463    35.301463            0            0            0   0.72666326 
  106000    44106.543    307.29243   -55855.127    1922.6428    2985.5405    4908.1834   -31020.553   -927.26301    1536.7887   -1507.9751    3434.5844    856.76204    202.16921            0    4493.5157   -2117.5008   -29.762066    35.331955    35.331955    35.331955            0            0            0   0.72478349 
  107000    44220.837    307.29243   -56742.978    1922.6428     3084.024    5006.6668   -31587.762   -925.95491    1536.4437   -1505.9003    3530.9931    856.76204    202.16921            0    4589.9243   -2116.3891   -29.685142    35.362448    35.362448    35.362448            0            0            0    0.7229102 
  108000    44335.328    307.29243   -57629.241    1922.6428    3183.7329    5106.3757   -32155.844   -924.62034    1535.6914   -1504.2101    3629.0118    856.76204    202.16921            0    4687.9431   -2115.2811   -29.608483     35.39294     35.39294     35.39294            0            0            0   0.72104335 
  109000    44450.017    307.29243   -58509.898    1922.6428    3285.5311    5208.1739    -32721.33   -923.25954    1535.3958   -1502.0407    3728.6405    856.76204    202.16921            0    4787.5718    -2114.177   -29.532088    35.423433    35.423433    35.423433            0            0            0   0.71918293 
  110000    44564.904    307.29243    -59388.68    1922.6428    3388.6235    5311.2664   -33287.421   -921.86828    1534.7578    -1500.187    3829.8793    856.76204    202.16921            0    4888.8106   -2113.0765   -29.455955    35.453925    35.453925    35.453925            0            0            0   0.71732891 
  111000    44679.988    307.29243   -60263.301    1922.6428    3493.5026    5416.1454   -33852.133   -920.45414    1534.2772   -1498.1568    3932.7281    856.76204    202.16921            0    4991.6594   -2111.9798   -29.380084    35.484418    35.484418    35.484418            0            0            0   0.71548125 
  112000    44795.271    307.29243   -61135.398    1922.6428    3599.8187    5522.4615   -34416.871   -919.01817    1533.6054   -1496.2995     4037.187    856.76204    202.16921            0    5096.1182   -2110.8868   -29.304474     35.51491     35.51491     35.51491            0            0            0   0.71363993 
  113000    44910.751    307.29243   -62003.659    1922.6428    3707.8627    5630.5055    -34980.48   -917.54856    1533.0217   -1494.3243    4143.2558    856.76204    202.16921            0    5202.1871   -2109.7975   -29.229122    35.545403    35.545403    35.545403            0            0            0   0.71180493 
  114000     45026.43    307.29243   -62868.899    1922.6428     3817.456    5740.0988   -35543.662   -916.06275    1532.3646     -1492.41    4250.9347    856.76204    202.16921            0     5309.866   -2108.7119   -29.154029    35.575895    35.575895    35.575895            0            0            0   0.70997621 
  115000    45142.307    307.29243   -63730.904    1922.6428     3928.652    5851.2948   -36106.216   -914.54934    1531.6763   -1490.5029    4360.2237    856.76204    202.16921            0    5419.1549   -2107.6299   -29.079192    35.606388    35.606388    35.606388            0            0            0   0.70815375 
  116000    45258.383    307.29243   -64588.915    1922.6428    4041.6151    5964.2579   -36667.467   -913.02484    1531.1376   -1488.4388    4471.1226    856.76204    202.16921            0    5530.0539   -2106.5515   -29.004612     35.63688     35.63688     35.63688            0            0            0   0.70633752 
  117000    45374.657    307.29243   -65442.673    1922.6428    4156.4155    6079.0583   -37227.162    -911.4623    1530.7917   -1486.1474    4583.6316    856.76204    202.16921            0    5642.5629   -2105.4768   -28.930286    35.667373    35.667373    35.667373            0            0            0    0.7045275 
  118000    45491.131    307.29243   -66294.485    1922.6428    4272.5446    6195.1875   -37787.324    -909.8806    1530.1491   -1484.1373    4697.7506    856.76204    202.16921            0    5756.6819   -2104.4057   -28.856214    35.697865    35.697865    35.697865            0            0            0   0.70272365 
  119000    45607.804    307.29243   -67142.158    1922.6428    4390.4897    6313.1325   -38346.006   -908.27349    1529.6905   -1481.9213    4813.4797    856.76204    202.16921            0     5872.411   -2103.3382   -28.782395    35.728358    35.728358    35.728358            0            0            0   0.70092596 
  120000    45724.676    307.29243   -67986.615    1922.6428    4510.0502     6432.693   -38904.011   -906.64543    1529.2199   -1479.6999    4930.8188    856.76204    202.16921            0    5989.7501   -2102.2743   -28.708827     35.75885     35.75885     35.75885            0            0            0    0.6991344 
  121000    45841.748    307.29243   -68826.953    1922.6428    4631.4284    6554.0712   -39460.523   -904.99907    1528.9423   -1477.2708    5049.7679    856.76204    202.16921            0    6108.6992    -2101.214    -28.63551    35.789343    35.789343    35.789343            0            0            0   0.69734893 
  122000    45959.019    307.29243   -69665.592    1922.6428    4754.0933    6676.7361   -40017.682   -903.33101    1528.3232    -1475.165    5170.3271    856.76204    202.16921            0    6229.2583   -2100.1572   -28.562442    35.819835    35.819835    35.819835            0            0            0   0.69556954 
  123000     46076.49    307.29243   -70499.054    1922.6428    4878.8172      6801.46   -40572.377   -901.65034     1528.144   -1472.6103    5292.4963    856.76204    202.16921            0    6351.4275   -2099.1039   -28.489623    35.850328    35.850328    35.850328            0            0            0    0.6937962 
  124000    46194.161    307.29243   -71330.368    1922.6428    5004.9355    6927.5783   -41127.295   -899.94135    1527.7243   -1470.2713    5416.2755    856.76204    202.16921            0    6475.2067   -2098.0542   -28.417051     35.88082     35.88082     35.88082            0            0            0   0.69202889 
  125000    46312.032    307.29243   -72159.021    1922.6428    5132.5608    7055.2036   -41681.973   -898.21738    1527.1901   -1468.0352    5541.6647    856.76204    202.16921            0     6600.596    -2097.008   -28.344725    35.911313    35.911313    35.911313            0            0            0   0.69026757 
  126000    46430.104    307.29243   -72985.479    1922.6428    5261.5943    7184.2371   -42236.818   -896.46937    1526.4336    -1466.001     5668.664    856.76204    202.16921            0    6727.5953   -2095.9652   -28.272644    35.941805    35.941805    35.941805            0            0            0   0.68851222 
  127000    46548.376    307.29243   -73807.654    1922.6428     5392.502    7315.1448   -42789.943   -894.71421    1525.9376   -1463.7026    5797.2733    856.76204    202.16921            0    6856.2046    -2094.926   -28.200808    35.972298    35.972298    35.972298            0            0            0   0.68676282 
  128000    46666.849    307.29243   -74627.036    1922.6428    5524.9577    7447.6005   -43342.674   -892.93727    1525.3612   -1461.4663    5927.4927    856.76204    202.16921            0    6986.4239   -2093.8902   -28.129215     36.00279     36.00279     36.00279            0            0            0   0.68501934 
  129000    46785.522    307.29243   -75444.005    1922.6428    5658.8792     7581.522   -43895.345   -891.13721    1524.6209   -1459.3741    6059.3221    856.76204    202.16921            0    7118.2533   -2092.8578   -28.057864    36.033283    36.033283    36.033283            0            0            0   0.68328175 
  130000    46904.397    307.29243   -76257.184    1922.6428    5794.5787    7717.2215   -44446.697   -889.32059    1524.0355    -1457.114    6192.7615    856.76204    202.16921            0    7251.6927   -2091.8289   -27.986754    36.063775    36.063775    36.063775            0            0            0   0.68155004 
  131000    47023.473    307.29243   -77068.262    1922.6428    5931.6777    7854.3205   -44998.255   -887.48404     1523.223   -1455.0645    6327.8109    856.76204    202.16921            0    7386.7422   -2090.8034   -27.915884    36.094268    36.094268    36.094268            0            0            0   0.67982418 
  132000     47142.75    307.29243   -77875.261    1922.6428    6070.6258    7993.2686   -45548.205   -885.63774    1522.6432   -1452.7759    6464.4704    856.76204    202.16921            0    7523.4017   -2089.7814   -27.845253     36.12476     36.12476     36.12476            0            0            0   0.67810413 
  133000    47262.229    307.29243   -78678.435    1922.6428    6211.3718    8134.0146    -46096.76   -883.77423    1522.2375   -1450.2994    6602.7399    856.76204    202.16921            0    7661.6712   -2088.7627   -27.774861    36.155253    36.155253    36.155253            0            0            0   0.67638989 
  134000    47381.909    307.29243   -79479.291    1922.6428     6353.577    8276.2198   -46645.286   -881.88871    1521.6623   -1447.9737    6742.6195    856.76204    202.16921            0    7801.5507   -2087.7473   -27.704705    36.185745    36.185745    36.185745            0            0            0   0.67468142 
  135000    47501.792    307.29243   -80276.089    1922.6428    6497.6349    8420.2777    -47192.18    -880.0051    1521.3351   -1445.4054     6884.109    856.76204    202.16921            0    7943.0403   -2086.7354   -27.634785    36.216238    36.216238    36.216238            0            0            0    0.6729787 
  136000    47621.876    307.29243   -81072.079    1922.6428    6642.8144    8565.4572   -47740.416   -878.08821    1520.4895   -1443.3255    7027.2086    856.76204    202.16921            0    8086.1399   -2085.7268   -27.565101     36.24673     36.24673     36.24673            0            0            0    0.6712817 
  137000    47742.163    307.29243   -81863.356    1922.6428     6790.004    8712.6468   -48286.391   -876.17432    1520.0503   -1440.8455    7171.9183    856.76204    202.16921            0    8230.8495   -2084.7215   -27.495651    36.277223    36.277223    36.277223            0            0            0    0.6695904 
  138000    47862.652    307.29243    -82652.47    1922.6428    6938.6272    8861.2701   -48832.442   -874.24187    1519.4195    -1438.542    7318.2379    856.76204    202.16921            0    8377.1692   -2083.7196   -27.426433    36.307715    36.307715    36.307715            0            0            0   0.66790478 
  139000    47983.343    307.29243   -83438.969    1922.6428    7088.7898    9011.4326   -49378.143   -872.29447    1518.7062   -1436.3091    7466.1676    856.76204    202.16921            0    8525.0989   -2082.7209   -27.357448    36.338208    36.338208    36.338208            0            0            0   0.66622481 
  140000    48104.237    307.29243   -84221.676    1922.6428     7240.768    9163.4108   -49922.387   -870.33138    1518.1863   -1433.8707    7615.7074    856.76204    202.16921            0    8674.6386   -2081.7256   -27.288694      36.3687      36.3687      36.3687            0            0            0   0.66455048 
  141000    48225.334    307.29243    -85002.22    1922.6428    7394.1856    9316.8284   -50466.681   -868.35518    1517.4859   -1431.6028    7766.8571    856.76204    202.16921            0    8825.7884   -2080.7335    -27.22017    36.399193    36.399193    36.399193            0            0            0   0.66288174 
  142000    48346.635    307.29243   -85779.531    1922.6428    7549.2944    9471.9372   -51010.016   -866.36823    1516.8591   -1429.2538    7919.6169    856.76204    202.16921            0    8978.5482   -2079.7447   -27.151876    36.429685    36.429685    36.429685            0            0            0   0.66121859 
  143000    48468.138    307.29243   -86552.718    1922.6428    7706.3082     9628.951   -51551.537   -864.36546    1516.5148   -1426.6098    8073.9868    856.76204    202.16921            0     9132.918   -2078.7591    -27.08381    36.460178    36.460178    36.460178            0            0            0     0.659561 
  144000    48589.845    307.29243   -87323.976    1922.6428    7864.7146    9787.3574   -52093.298   -862.35303    1515.9466   -1424.1833    8229.9666    856.76204    202.16921            0    9288.8979   -2077.7768   -27.015971     36.49067     36.49067     36.49067            0            0            0   0.65790895 
  145000    48711.755    307.29243   -88091.585    1922.6428     8024.919    9947.5618   -52633.668   -860.33434    1515.5633   -1421.5688    8387.5565    856.76204    202.16921            0    9446.4878   -2076.7977   -26.948358    36.521163    36.521163    36.521163            0            0            0   0.65626241 
  146000    48833.869    307.29243   -88856.526    1922.6428    8186.6956    10109.338    -53173.56   -858.30427     1515.134   -1418.9921    8546.7565    856.76204    202.16921            0    9605.6877   -2075.8218   -26.880971    36.551655    36.551655    36.551655            0            0            0   0.65462136 
  147000    48956.187    307.29243   -89618.915    1922.6428    8350.0235    10272.666   -53713.068   -856.25364    1514.6287   -1416.4741    8707.5664    856.76204    202.16921            0    9766.4977   -2074.8492   -26.813808    36.582147    36.582147    36.582147            0            0            0   0.65298577 
  148000     49078.71    307.29243   -90377.849    1922.6428    8515.1151    10437.758    -54251.33   -854.19374    1514.2708   -1413.8026    8869.9864    856.76204    202.16921            0    9928.9177   -2073.8797   -26.746869     36.61264     36.61264     36.61264            0            0            0   0.65135563 
  149000    49201.436    307.29243   -91133.578    1922.6428    8681.9133    10604.556   -54788.568   -852.13059    1514.0095   -1411.0344    9034.0164    856.76204    202.16921            0    10092.948   -2072.9133   -26.680153    36.643132    36.643132    36.643132            0            0            0   0.64973091 
  150000    49324.367    307.29243   -91887.204    1922.6428    8850.1606    10772.803   -55325.825   -850.05872    1513.5817   -1408.4271    9199.6565    856.76204    202.16921            0    10258.588   -2071.9502   -26.613658    36.673625    36.673625    36.673625            0            0            0   0.64811159 
  150396    49373.104    307.29243   -92184.615    1922.6428    8917.2936    10839.936   -55538.156   -849.23536    1513.4724   -1407.3326     9265.695    856.76204    202.16921            0    10324.626   -2071.5696   -26.587387      36.6857      36.6857      36.6857            0            0            0   0.64747183 
Loop time of 161.156 on 48 procs for 100000 steps with 2100 atoms

Performance: 53.613 ns/day, 0.448 hours/ns, 620.516 timesteps/s
42.6% CPU use with 48 MPI tasks x 1 OpenMP threads

MPI task timing breakdown:
Section |  min time  |  avg time  |  max time  |%varavg| %total
---------------------------------------------------------------
Pair    | 4.1639     | 24.29      | 44.364     | 182.5 | 15.07
Bond    | 0.1653     | 2.3114     | 4.9987     |  79.3 |  1.43
Kspace  | 27.89      | 50.66      | 69.604     | 144.5 | 31.44
Neigh   | 0.012722   | 0.01433    | 0.015904   |   0.9 |  0.01
Comm    | 57.6       | 66.841     | 81.666     |  74.5 | 41.48
Output  | 0.11047    | 0.12081    | 0.13172    |   1.1 |  0.07
Modify  | 0.42432    | 0.53213    | 0.85774    |  12.3 |  0.33
Other   |            | 16.39      |            |       | 10.17

Nlocal:    43.75 ave 73 max 13 min
Histogram: 3 1 6 3 3 14 8 5 3 2
Nghost:    1991.04 ave 2059 max 1921 min
Histogram: 3 2 6 4 3 15 6 5 1 3
Neighs:    8959.38 ave 16500 max 1505 min
Histogram: 2 3 4 7 6 11 8 3 0 4

Total # of neighbors = 430050
Ave neighs/atom = 204.786
Ave special neighs/atom = 8.14286
Neighbor list builds = 15
Dangerous builds = 0
# >>>>>>>>>  Equilibration run <<<<<<<<<<<<<<<<<<<<<<<<<<<<<<<<<<

fix             NVT_equib all nvt temp ${simulationTemp} ${simulationTemp} 100
fix             NVT_equib all nvt temp 310 ${simulationTemp} 100
fix             NVT_equib all nvt temp 310 310 100

print           "Step Density Temperature Pressure KinEng PotEng TotEng" file Properties_equib_DCM75p.txt
Step Density Temperature Pressure KinEng PotEng TotEng
fix             PRINT_equib all print ${printfreq} "$(v_step) $(v_density) $(v_temp) $(v_press) $(v_pe) $(v_ke) $(v_etotal) $(v_enthalpy)" append Properties_equib_DCM75p.txt title ""
fix             PRINT_equib all print 1000 "$(v_step) $(v_density) $(v_temp) $(v_press) $(v_pe) $(v_ke) $(v_etotal) $(v_enthalpy)" append Properties_equib_DCM75p.txt title ""
# The 'print' and fix print' commands as used above will create a file named 'Properties_equib.txt' which allows you to quickly make plots to test for equilibration


run             ${NVT_equib}
run             100000
Ewald initialization ...
  using 12-bit tables for long-range coulomb (src/kspace.cpp:332)
  G vector (1/distance) = 0.155477
  estimated absolute RMS force accuracy = 0.0340968
  estimated relative force accuracy = 0.000102681
  KSpace vectors: actual max1d max3d = 128 4 364
                  kxmax kymax kzmax  = 4 4 4
Per MPI rank memory allocation (min/avg/max) = 22.41 | 22.74 | 22.91 Mbytes
Step Volume Temp Press KinEng PotEng TotEng Enthalpy E_vdwl E_coul E_pair E_bond E_angle E_dihed E_impro E_mol E_long E_tail Lx Ly Lz Xy Xz Yz Density 
  150396    49373.104    307.29243   -92169.828    1922.6428    8916.7336    10839.376   -55528.068   -849.23341    1496.4575   -1408.0597     9265.862    856.76204    202.16921            0    10324.793   -2055.2838   -26.587387      36.6857      36.6857      36.6857            0            0            0   0.64747183 
151000 0.64747182761157695552 270.87189880046702228 -13747.581493332500031 899.76179149747201791 1694.7697065565200774 2594.531498054000167 -7304.4981041658002141
  151000    49373.104     270.8719   -13747.581    1694.7697    899.76179    2594.5315   -7304.4981    -696.2721    1473.7586    -1277.358    1140.8118    864.62591    171.68199            0    2177.1197   -2054.8445   -26.587387      36.6857      36.6857      36.6857            0            0            0   0.64747183 
152000 0.64747182761157595632 300.51697073667702398 3308.8280300049600555 623.57496810621398708 1880.2506297850600276 2503.8255978912698083 4886.3673295812595825
  152000    49373.104    300.51697     3308.828    1880.2506    623.57497    2503.8256    4886.3673   -791.46575    1487.5665   -1349.6662    803.48169    996.06002    173.69949            0    1973.2412    -2045.767   -26.587387      36.6857      36.6857      36.6857            0            0            0   0.64747183 
153000 0.64747182761157595632 297.39964189925200344 -6180.2207144560597953 439.07386195562497733 1860.7463751819100253 2299.8202371375400617 -2150.2852472579102141
  153000    49373.104    297.39964   -6180.2207    1860.7464    439.07386    2299.8202   -2150.2852   -808.11456    1462.7274   -1393.3614    823.56339    819.76131    189.11056            0    1832.4353   -2047.9742   -26.587387      36.6857      36.6857      36.6857            0            0            0   0.64747183 
154000 0.64747182761157595632 308.48093318001701846 1276.1800178524999865 456.97433379265498843 1930.0789152325301075 2387.0532490251798663 3305.9744265872300275
  154000    49373.104    308.48093      1276.18    1930.0789    456.97433    2387.0532    3305.9744   -817.61043    1493.9063   -1372.3535    680.39587    958.77214    190.15978            0    1829.3278   -2048.6493   -26.587387      36.6857      36.6857      36.6857            0            0            0   0.64747183 
155000 0.64747182761157595632 311.37100705046702842 -2293.8100974023800518 348.82548920621002253 1948.1612990716701006 2296.9867882778798958 645.31488750979201541
  155000    49373.104    311.37101   -2293.8101    1948.1613    348.82549    2296.9868    645.31489   -822.02357    1467.2807   -1403.4659    687.80413    880.67193    183.81536            0    1752.2914   -2048.7231   -26.587387      36.6857      36.6857      36.6857            0            0            0   0.64747183 
156000 0.64747182761157595632 306.53824323967000964 -1543.2945274882099511 367.26172489509502839 1917.924047655970071 2285.1857725510599266 1173.9271689953100122
  156000    49373.104    306.53824   -1543.2945     1917.924    367.26172    2285.1858    1173.9272   -817.86707    1462.1558   -1404.7494    703.69715    885.31262     183.0014            0    1772.0112   -2049.0382   -26.587387      36.6857      36.6857      36.6857            0            0            0   0.64747183 
157000 0.64747182761157595632 314.47157520357501426 594.27765733885098598 408.06641085655797951 1967.5606867610999871 2375.6270976176601835 2803.5403363781101689
  157000    49373.104    314.47158    594.27766    1967.5607    408.06641    2375.6271    2803.5403   -810.14647    1474.6888   -1385.9504     715.2315    901.52598    177.25932            0    1794.0168   -2050.4927   -26.587387      36.6857      36.6857      36.6857            0            0            0   0.64747183 
158000 0.64747182761157595632 303.230606556472992 -2219.7150740444599251 410.8015630732010095 1897.2290900918899297 2308.030653165089916 709.71132426229996781
  158000    49373.104    303.23061   -2219.7151    1897.2291    410.80156    2308.0307    709.71132   -805.51456    1478.3069   -1375.9607    729.76002    871.95344    185.04882            0    1786.7623   -2048.7531   -26.587387      36.6857      36.6857      36.6857            0            0            0   0.64747183 
159000 0.64747182761157595632 307.16377789659100017 1209.8310215242699996 407.04738170973297429 1921.837843039119889 2328.8852247488498506 3200.0314042831100778
  159000    49373.104    307.16378     1209.831    1921.8378    407.04738    2328.8852    3200.0314   -814.72345     1459.699   -1401.4295    697.42043    928.18243    182.87399            0    1808.4769    -2046.405   -26.587387      36.6857      36.6857      36.6857            0            0            0   0.64747183 
160000 0.64747182761157595632 316.66113813632000529 -618.34291408595504436 349.80296008350097736 1981.2601695994799229 2331.0631296829801613 1885.8215565503999187
  160000    49373.104    316.66114   -618.34291    1981.2602    349.80296    2331.0631    1885.8216   -823.91272    1477.1059   -1395.4579    687.78211    877.51608    179.96267            0    1745.2609    -2048.651   -26.587387      36.6857      36.6857      36.6857            0            0            0   0.64747183 
161000 0.64747182761157595632 311.52357249390701099 -73.672278748482099786 387.78710029052598429 1949.1158583779499622 2336.9029586684800961 2283.8547866283402072
  161000    49373.104    311.52357   -73.672279    1949.1159     387.7871     2336.903    2283.8548   -804.34848      1468.63   -1384.2404    703.43174    884.73517    183.86058            0    1772.0275   -2048.5219   -26.587387      36.6857      36.6857      36.6857            0            0            0   0.64747183 
162000 0.64747182761157595632 308.59733572175599647 -1091.6473422705100802 377.40259639709000794 1930.8072133778100579 2308.2098097748998953 1522.1625067229999786
  162000    49373.104    308.59734   -1091.6473    1930.8072     377.4026    2308.2098    1522.1625   -802.56538     1467.284   -1384.8118      705.632    873.72723    182.85517            0    1762.2144   -2049.5304   -26.587387      36.6857      36.6857      36.6857            0            0            0   0.64747183 
163000 0.64747182761157595632 314.32585793934697449 268.07489244590698263 368.50365062047501397 1966.6489745966800911 2335.1526252171502165 2528.1815806898598566
  163000    49373.104    314.32586    268.07489     1966.649    368.50365    2335.1526    2528.1816   -813.15195    1458.2708   -1402.6414    696.17667     900.4155    174.55286            0     1771.145   -2047.7602   -26.587387      36.6857      36.6857      36.6857            0            0            0   0.64747183 
164000 0.64747182761157595632 304.62742252586798486 963.43383939742204802 358.38293210362598984 1905.9685769159100346 2264.3515090195301127 2958.0779001379100919
  164000    49373.104    304.62742    963.43384    1905.9686    358.38293    2264.3515    2958.0779   -807.93422     1448.116    -1405.797    690.86926    888.33837    184.97232            0    1764.1799   -2045.9788   -26.587387      36.6857      36.6857      36.6857            0            0            0   0.64747183 
165000 0.64747182761157595632 308.1999096458899885 -1271.0276434534200689 330.17042128829200465 1928.3206295831998887 2258.491050871490188 1343.279871807940026
  165000    49373.104    308.19991   -1271.0276    1928.3206    330.17042    2258.4911    1343.2799   -795.91767    1460.7522   -1383.3027    656.02881    885.08247    172.36186            0    1713.4731   -2048.1373   -26.587387      36.6857      36.6857      36.6857            0            0            0   0.64747183 
166000 0.64747182761157595632 309.51055513976200473 440.27599383960802015 354.40174141775599992 1936.520971844189944 2290.9227132619498661 2607.9461183080497904
  166000    49373.104    309.51056    440.27599     1936.521    354.40174    2290.9227    2607.9461   -810.91331    1470.6201   -1388.2594    673.58819    892.10973    176.96323            0    1742.6612   -2047.9662   -26.587387      36.6857      36.6857      36.6857            0            0            0   0.64747183 
167000 0.64747182761157595632 310.36573344975499822 -343.53706986091100362 397.41962565321898637 1941.8715833321300579 2339.2912089853498401 2091.9252540599400163
  167000    49373.104    310.36573   -343.53707    1941.8716    397.41963    2339.2912    2091.9253   -802.38652     1449.733   -1401.5907    671.63286     936.8957    190.48177            0    1799.0103   -2048.9372   -26.587387      36.6857      36.6857      36.6857            0            0            0   0.64747183 
168000 0.64747182761157695552 309.66475596309601315 773.14771387974394656 431.99661540318800235 1937.4857632650400774 2369.4823786682300124 2926.1920886849297858
  168000    49373.104    309.66476    773.14771    1937.4858    431.99662    2369.4824    2926.1921   -751.64807    1421.4866   -1381.4176    696.40907    933.01103    183.99409            0    1813.4142   -2051.2561   -26.587387      36.6857      36.6857      36.6857            0            0            0   0.64747183 
169000 0.64747182761157695552 305.60311728808898124 411.96125903317602024 417.58840843959302447 1912.0732261363700673 2329.6616345759598516 2626.2968427480300306
  169000    49373.104    305.60312    411.96126    1912.0732    417.58841    2329.6616    2626.2968   -764.65684    1453.2069   -1357.9593    662.93113    919.67846    192.93811            0    1775.5477   -2046.5094   -26.587387      36.6857      36.6857      36.6857            0            0            0   0.64747183 
170000 0.64747182761157695552 311.26901462153000466 1105.5128013629901034 414.6059023783159887 1947.5231609716199728 2362.1290633499302203 3158.1602744857000289
  170000    49373.104    311.26901    1105.5128    1947.5232     414.6059    2362.1291    3158.1603   -766.58872    1465.1942   -1348.1366    672.72094    920.05679    169.96472            0    1762.7425   -2046.7421   -26.587387      36.6857      36.6857      36.6857            0            0            0   0.64747183 
171000 0.64747182761157595632 306.26899653181300209 -194.85015525689098581 389.59628380248898338 1916.2394463145699319 2305.8357301170599385 2165.5326916647600228
  171000    49373.104      306.269   -194.85016    1916.2394    389.59628    2305.8357    2165.5327   -758.79788     1418.146   -1391.4774    702.74277    890.52999    187.80096            0    1781.0737   -2050.8256   -26.587387      36.6857      36.6857      36.6857            0            0            0   0.64747183 
172000 0.64747182761157595632 314.1745603314710138 -156.13003233234098843 386.03860328723800421 1965.7023477829100102 2351.7409510701500039 2239.3185724428199137
  172000    49373.104    314.17456   -156.13003    1965.7023     386.0386     2351.741    2239.3186   -779.17806    1452.5398   -1374.7586    673.45683    911.15374    176.18658            0    1760.7972   -2048.1203   -26.587387      36.6857      36.6857      36.6857            0            0            0   0.64747183 
173000 0.64747182761157595632 311.21114777255701256 -30.266380367278099328 429.34798213561202829 1947.1611042832400926 2376.5090864188500746 2354.7155952980301663
  173000    49373.104    311.21115    -30.26638    1947.1611    429.34798    2376.5091    2354.7156   -784.02298    1435.6786   -1399.5224    691.82736    944.52241    192.52062            0    1828.8704    -2051.178   -26.587387      36.6857      36.6857      36.6857            0            0            0   0.64747183 
174000 0.64747182761157595632 312.00767621903202098 334.04372124495301932 272.90297652086798053 1952.1447599798000283 2225.0477365006699983 2465.5779480613900887
  174000    49373.104    312.00768    334.04372    1952.1448    272.90298    2225.0477    2465.5779   -824.27146    1457.2866   -1412.0104    603.18191    902.43279    179.29872            0    1684.9134   -2045.0256   -26.587387      36.6857      36.6857      36.6857            0            0            0   0.64747183 
175000 0.64747182761157595632 308.13395142298497831 -162.77165813191498955 405.64130606033700133 1927.907947431330058 2333.5492534916597833 2216.3445318443200449
  175000    49373.104    308.13395   -162.77166    1927.9079    405.64131    2333.5493    2216.3445   -772.17092    1441.8629    -1378.593    673.54185    926.43415    184.25828            0    1784.2343   -2048.2849   -26.587387      36.6857      36.6857      36.6857            0            0            0   0.64747183 
176000 0.64747182761157595632 308.39616350302401315 1387.9901976036101132 309.38357789546898857 1929.5485350740900685 2238.9321129695599666 3238.3628899635100424
  176000    49373.104    308.39616    1387.9902    1929.5485    309.38358    2238.9321    3238.3629   -768.41366    1423.1984   -1395.9722    657.50571    864.80794    183.04209            0    1705.3557    -2050.757   -26.587387      36.6857      36.6857      36.6857            0            0            0   0.64747183 
177000 0.64747182761157695552 311.70604772312202613 -471.25571158366301461 356.97534101080202618 1950.257554847909887 2307.2328958587099805 1967.9023567784900024
  177000    49373.104    311.70605   -471.25571    1950.2576    356.97534    2307.2329    1967.9024   -785.79651    1465.8209   -1370.0473    661.37615    885.15392    180.49261            0    1727.0227   -2050.0717   -26.587387      36.6857      36.6857      36.6857            0            0            0   0.64747183 
178000 0.64747182761157595632 308.50960208883100222 -144.24278496413398898 368.17362970197399363 1930.258288576140103 2298.4319182781100608 2194.5690243604299212
  178000    49373.104     308.5096   -144.24278    1930.2583    368.17363    2298.4319     2194.569   -752.28966    1425.7773   -1374.6677    652.24714    904.94177    185.65238            0    1742.8413   -2048.1553   -26.587387      36.6857      36.6857      36.6857            0            0            0   0.64747183 
179000 0.64747182761157595632 308.37571398166801373 -341.98614992663402745 282.94047115222400635 1929.4205881387999852 2212.3610592910199557 1966.1118536896799469
  179000    49373.104    308.37571   -341.98615    1929.4206    282.94047    2212.3611    1966.1119   -790.01936    1428.0075   -1409.6103    626.29281    875.92069    190.33731            0    1692.5508   -2047.5985   -26.587387      36.6857      36.6857      36.6857            0            0            0   0.64747183 
180000 0.64747182761157595632 311.54405477912098377 -415.40055638936701143 343.43112912888801702 1949.2440103075400657 2292.6751394364300722 1993.5634443014500903
  180000    49373.104    311.54405   -415.40056     1949.244    343.43113    2292.6751    1993.5634   -814.69124    1451.1238   -1411.6807    647.32212    907.63615    200.15356            0    1755.1118   -2048.1132   -26.587387      36.6857      36.6857      36.6857            0            0            0   0.64747183 
181000 0.64747182761157595632 315.7350238034330232 368.95936028634798731 402.9369779518830228 1975.4657312574599928 2378.4027092093501778 2644.0741388540400294
  181000    49373.104    315.73502    368.95936    1975.4657    402.93698    2378.4027    2644.0741   -760.37236    1450.1061   -1359.6812    652.26026    907.15084    203.20711            0    1762.6182    -2049.415   -26.587387      36.6857      36.6857      36.6857            0            0            0   0.64747183 
182000 0.64747182761157595632 310.87308553544397682 -69.304136148962498964 390.23475303249500712 1945.0459434233400771 2335.2806964558299114 2285.377832040910107
  182000    49373.104    310.87309   -69.304136    1945.0459    390.23475    2335.2807    2285.3778   -755.52396    1430.7168   -1374.5269    673.45869    898.86161    192.44139            0    1764.7617   -2049.7198   -26.587387      36.6857      36.6857      36.6857            0            0            0   0.64747183 
183000 0.64747182761157595632 310.52249037145702459 -658.78424977384497652 344.11244531979997419 1942.8523675455101056 2286.9648128653097956 1812.6032101972200508
  183000    49373.104    310.52249   -658.78425    1942.8524    344.11245    2286.9648    1812.6032   -794.30528    1456.1238   -1385.7811    673.78909    858.00965     198.0948            0    1729.8935   -2047.5996   -26.587387      36.6857      36.6857      36.6857            0            0            0   0.64747183 
184000 0.64747182761157595632 314.88193694601602601 -284.98458270751501686 380.7875673936400176 1970.1282054033099485 2350.9157727969500229 2145.7108920863897765
  184000    49373.104    314.88194   -284.98458    1970.1282    380.78757    2350.9158    2145.7109   -782.02062    1436.4893   -1390.9933    665.40639    904.86552    201.50896            0    1771.7809    -2045.462   -26.587387      36.6857      36.6857      36.6857            0            0            0   0.64747183 
185000 0.64747182761157595632 315.55918877605199668 -701.6889658197000017 325.37030468498102209 1974.3655806730801032 2299.7358853580599316 1794.4804811570400034
  185000    49373.104    315.55919   -701.68897    1974.3656     325.3703    2299.7359    1794.4805   -786.10243    1421.5343   -1413.0608    654.52253    887.63125    196.27736            0    1738.4311   -2048.4927   -26.587387      36.6857      36.6857      36.6857            0            0            0   0.64747183 
186000 0.64747182761157595632 308.64088193702900753 -1038.2130570668700784 338.00757416608200856 1931.0796698666799784 2269.087244032759827 1521.5156227770100941
  186000    49373.104    308.64088   -1038.2131    1931.0797    338.00757    2269.0872    1521.5156   -768.89541    1434.0838   -1385.5937    668.94449    866.12999    188.52678            0    1723.6013   -2050.7821   -26.587387      36.6857      36.6857      36.6857            0            0            0   0.64747183 
187000 0.64747182761157595632 312.95454913493102822 -479.76993346422000286 330.14099190234998105 1958.0690789694499472 2288.2100708717998714 1942.7488145831400743
  187000    49373.104    312.95455   -479.76993    1958.0691    330.14099    2288.2101    1942.7488   -758.06398    1426.3919   -1381.3231    627.32661    897.09514     187.0423            0     1711.464    -2049.651   -26.587387      36.6857      36.6857      36.6857            0            0            0   0.64747183 
188000 0.64747182761157595632 296.53499893084301675 619.01535670351495355 304.21642046783199476 1855.3365459735800869 2159.5529664414198123 2605.2787359673898209
[...]
253000 0.64747182761157595632 308.30966044419898253 -253.72256571665900537 330.32442019304301084 1929.0073096303599414 2259.33172982340011 2076.6372544352398108
  253000    49373.104    308.30966   -253.72257    1929.0073    330.32442    2259.3317    2076.6373   -785.04347    1456.3996   -1379.4543    612.64743    883.18152    213.94978            0    1709.7787   -2050.8104   -26.587387      36.6857      36.6857      36.6857            0            0            0   0.64747183 
254000 0.64747182761157595632 305.96886457635599754 -199.98024972270098942 313.08623561102001531 1914.3616046177000953 2227.447840228719997 2083.4508460792799269
254000 0.64747182761157595632 305.96886457635599754 -199.98024972270098942 313.08623561102001531 1914.3616046177000953 2227.447840228719997 2083.4508460792799269
  254000    49373.104    305.96886   -199.98025    1914.3616    313.08624    2227.4478    2083.4508   -791.92369    1453.3614   -1387.6288     629.1658    877.36501    194.18419            0     1700.715   -2049.0665   -26.587387      36.6857      36.6857      36.6857            0            0            0   0.64747183 
255000 0.64747182761157595632 299.07935729654099077 292.03302981982699293 274.89640549818602722 1871.2558845978699082 2146.1522900960499101 2356.4324479852398326
255000 0.64747182761157595632 299.07935729654099077 292.03302981982699293 274.89640549818602722 1871.2558845978699082 2146.1522900960499101 2356.4324479852398326
  255000    49373.104    299.07936    292.03303    1871.2559    274.89641    2146.1523    2356.4324   -764.70285    1436.5226     -1379.04     596.2719    854.35397    203.31048            0    1653.9364   -2050.8597   -26.587387      36.6857      36.6857      36.6857            0            0            0   0.64747183 
256000 0.64747182761157595632 315.78488305551002213 -1058.9097448754801007 289.43054706788097974 1975.7776866518199768 2265.2082337196998196 1502.7338366277399473
256000 0.64747182761157595632 315.78488305551002213 -1058.9097448754801007 289.43054706788097974 1975.7776866518199768 2265.2082337196998196 1502.7338366277399473
  256000    49373.104    315.78488   -1058.9097    1975.7777    289.43055    2265.2082    1502.7338   -763.01896    1433.9007   -1383.4506    640.80301    836.67058    195.40759            0    1672.8812   -2054.3324   -26.587387      36.6857      36.6857      36.6857            0            0            0   0.64747183 
257000 0.64747182761157595632 315.12504249600499406 -15.537715320748999304 263.01151125762402216 1971.6492488317398966 2234.6607600893598828 2223.4727337455601628
257000 0.64747182761157595632 315.12504249600499406 -15.537715320748999304 263.01151125762402216 1971.6492488317398966 2234.6607600893598828 2223.4727337455601628
  257000    49373.104    315.12504   -15.537715    1971.6492    263.01151    2234.6608    2223.4727   -813.74183    1470.8098   -1394.1178     594.6743    864.30613    198.14885            0    1657.1293   -2051.1857   -26.587387      36.6857      36.6857      36.6857            0            0            0   0.64747183 
258000 0.64747182761157595632 310.60241378275600255 162.11631452562198774 255.16627832353100302 1943.352425975019969 2198.5187042985598964 2315.2515417994800373
258000 0.64747182761157595632 310.60241378275600255 162.11631452562198774 255.16627832353100302 1943.352425975019969 2198.5187042985598964 2315.2515417994800373
  258000    49373.104    310.60241    162.11631    1943.3524    255.16628    2198.5187    2315.2515   -772.89125    1458.8413     -1363.88    593.33161    843.63099    182.08371            0    1619.0463   -2049.8301   -26.587387      36.6857      36.6857      36.6857            0            0            0   0.64747183 
259000 0.64747182761157595632 313.23654783519697276 -405.47461805387098366 305.66072474402699299 1959.8334659605600336 2265.494190704579978 1973.5297277908200613
259000 0.64747182761157595632 313.23654783519697276 -405.47461805387098366 305.66072474402699299 1959.8334659605600336 2265.494190704579978 1973.5297277908200613
  259000    49373.104    313.23655   -405.47462    1959.8335    305.66072    2265.4942    1973.5297   -747.37601    1455.2084   -1341.2246    618.89587    842.15713     185.8323            0    1646.8853    -2049.057   -26.587387      36.6857      36.6857      36.6857            0            0            0   0.64747183 
260000 0.64747182761157595632 312.41941943407198323 -217.59820764882800859 306.9274905028989906 1954.7209221096600231 2261.6484126125601506 2104.9655007890901288
260000 0.64747182761157595632 312.41941943407198323 -217.59820764882800859 306.9274905028989906 1954.7209221096600231 2261.6484126125601506 2104.9655007890901288
  260000    49373.104    312.41942   -217.59821    1954.7209    306.92749    2261.6484    2104.9655   -785.01424     1455.155   -1381.5801    613.22699    881.88248    193.39814            0    1688.5076   -2051.7209   -26.587387      36.6857      36.6857      36.6857            0            0            0   0.64747183 
261000 0.64747182761157595632 313.84544163970298314 -183.90020559546499612 351.17786794840702669 1963.6431441846800681 2314.8210121330798756 2182.4025514804397972
261000 0.64747182761157595632 313.84544163970298314 -183.90020559546499612 351.17786794840702669 1963.6431441846800681 2314.8210121330798756 2182.4025514804397972
  261000    49373.104    313.84544   -183.90021    1963.6431    351.17787     2314.821    2182.4026   -779.89563    1459.2177   -1370.1518    619.96724    899.95709    201.40537            0    1721.3297   -2049.4739   -26.587387      36.6857      36.6857      36.6857            0            0            0   0.64747183 
262000 0.64747182761157595632 312.15894503997202492 -917.9441270428419557 293.46845570712201834 1953.0912066817700179 2246.5596623888900467 1585.5884151053001005
262000 0.64747182761157595632 312.15894503997202492 -917.9441270428419557 293.46845570712201834 1953.0912066817700179 2246.5596623888900467 1585.5884151053001005
  262000    49373.104    312.15895   -917.94413    1953.0912    293.46846    2246.5597    1585.5884   -776.53461     1455.305    -1373.006    652.76496    837.13665    176.57287            0    1666.4745   -2051.7764   -26.587387      36.6857      36.6857      36.6857            0            0            0   0.64747183 
263000 0.64747182761157595632 308.34147943359300825 191.17452045437499919 285.31082201126901055 1929.2063921470698915 2214.5172141583398115 2352.1735894332100543
263000 0.64747182761157595632 308.34147943359300825 191.17452045437499919 285.31082201126901055 1929.2063921470698915 2214.5172141583398115 2352.1735894332100543
  263000    49373.104    308.34148    191.17452    1929.2064    285.31082    2214.5172    2352.1736    -782.2969    1493.0009   -1339.8882    596.78829    853.97291    174.43784            0     1625.199   -2050.5923   -26.587387      36.6857      36.6857      36.6857            0            0            0   0.64747183 
264000 0.64747182761157595632 315.3128918945549799 -1176.7806237516999772 357.59549531398698718 1972.8245699760400385 2330.4200652900199202 1483.0720255285300482
264000 0.64747182761157595632 315.3128918945549799 -1176.7806237516999772 357.59549531398698718 1972.8245699760400385 2330.4200652900199202 1483.0720255285300482
  264000    49373.104    315.31289   -1176.7806    1972.8246     357.5955    2330.4201     1483.072   -778.17133     1482.903   -1345.6671    632.89352    887.97234    182.39673            0    1703.2626   -2050.3988   -26.587387      36.6857      36.6857      36.6857            0            0            0   0.64747183 
265000 0.64747182761157595632 305.18595228638798744 260.59157423261399344 335.52001713670199479 1909.4631414038899493 2244.9831585405900114 2432.6237052555698028
265000 0.64747182761157595632 305.18595228638798744 260.59157423261399344 335.52001713670199479 1909.4631414038899493 2244.9831585405900114 2432.6237052555698028
  265000    49373.104    305.18595    260.59157    1909.4631    335.52002    2244.9832    2432.6237   -794.63021    1463.6398   -1380.9437    641.81545    885.47252    189.17575            0    1716.4637   -2049.9533   -26.587387      36.6857      36.6857      36.6857            0            0            0   0.64747183 
266000 0.64747182761157595632 309.83466366465398778 -813.80266317933296705 414.15391126661899079 1938.5488282296500984 2352.7027394962701692 1766.7191861647600035
266000 0.64747182761157595632 309.83466366465398778 -813.80266317933296705 414.15391126661899079 1938.5488282296500984 2352.7027394962701692 1766.7191861647600035
  266000    49373.104    309.83466   -813.80266    1938.5488    414.15391    2352.7027    1766.7192   -759.28305    1471.4404   -1334.3987    640.31398    916.15048    192.08819            0    1748.5527   -2046.5561   -26.587387      36.6857      36.6857      36.6857            0            0            0   0.64747183 
267000 0.64747182761157595632 299.88435973665900747 -1029.7984811605999766 356.84149330252398613 1876.2925597024400304 2233.1340530049701556 1491.6213982682900223
267000 0.64747182761157595632 299.88435973665900747 -1029.7984811605999766 356.84149330252398613 1876.2925597024400304 2233.1340530049701556 1491.6213982682900223
  267000    49373.104    299.88436   -1029.7985    1876.2926    356.84149    2233.1341    1491.6214   -790.32612    1497.6323   -1343.4504    600.88781    897.90909    201.49499            0    1700.2919   -2050.7565   -26.587387      36.6857      36.6857      36.6857            0            0            0   0.64747183 
268000 0.64747182761157595632 306.10253974492400175 -867.22248964505899949 359.04312103767000508 1915.1979727578000166 2274.2410937954700785 1649.7922697699100354
268000 0.64747182761157595632 306.10253974492400175 -867.22248964505899949 359.04312103767000508 1915.1979727578000166 2274.2410937954700785 1649.7922697699100354
  268000    49373.104    306.10254   -867.22249     1915.198    359.04312    2274.2411    1649.7923   -781.97795    1455.6934   -1375.1884    662.53977    898.43455    173.25723            0    1734.2315   -2048.9039   -26.587387      36.6857      36.6857      36.6857            0            0            0   0.64747183 
269000 0.64747182761157595632 310.56322881405498038 -933.59185215732100005 346.37193707854697777 1943.107256586099993 2289.4791936646502108 1617.2407068167099169
269000 0.64747182761157595632 310.56322881405498038 -933.59185215732100005 346.37193707854697777 1943.107256586099993 2289.4791936646502108 1617.2407068167099169
  269000    49373.104    310.56323   -933.59185    1943.1073    346.37194    2289.4792    1617.2407   -780.65524      1490.71   -1338.1882    596.61274    884.35401    203.59336            0    1684.5601    -2048.243   -26.587387      36.6857      36.6857      36.6857            0            0            0   0.64747183 
270000 0.64747182761157595632 311.88347335178400499 -469.10798669605998157 384.41302773717302443 1951.3676573795999047 2335.7806851167802051 1997.9966283941998881
270000 0.64747182761157595632 311.88347335178400499 -469.10798669605998157 384.41302773717302443 1951.3676573795999047 2335.7806851167802051 1997.9966283941998881
  270000    49373.104    311.88347   -469.10799    1951.3677    384.41303    2335.7807    1997.9966    -792.9965    1472.0749   -1368.0217    633.85643    924.79732    193.78097            0    1752.4347   -2047.1001   -26.587387      36.6857      36.6857      36.6857            0            0            0   0.64747183 
271000 0.64747182761157595632 300.88579838096501362 338.5325332971079888 352.90921996405199934 1882.5582811924200541 2235.4675011564700071 2479.2299091151198809
271000 0.64747182761157595632 300.88579838096501362 338.5325332971079888 352.90921996405199934 1882.5582811924200541 2235.4675011564700071 2479.2299091151198809
  271000    49373.104     300.8858    338.53253    1882.5583    352.90922    2235.4675    2479.2299   -765.94834    1454.7569   -1360.9104    632.94151    885.85416     195.0239            0    1713.8196   -2049.7189   -26.587387      36.6857      36.6857      36.6857            0            0            0   0.64747183 
272000 0.64747182761157595632 313.31348330946201486 -15.728845223750399285 371.28668420155798913 1960.3148297037901102 2331.6015139053502025 2320.2758633133398689
272000 0.64747182761157595632 313.31348330946201486 -15.728845223750399285 371.28668420155798913 1960.3148297037901102 2331.6015139053502025 2320.2758633133398689
  272000    49373.104    313.31348   -15.728845    1960.3148    371.28668    2331.6015    2320.2759   -784.51004    1473.1322   -1359.6571    646.76016    885.11518    199.06849            0    1730.9438   -2048.2793   -26.587387      36.6857      36.6857      36.6857            0            0            0   0.64747183 
273000 0.64747182761157595632 303.69414475208901649 -646.89661872293902434 403.18226864107799656 1900.1293189278799218 2303.3115875689600216 1837.5097458835700763
273000 0.64747182761157595632 303.69414475208901649 -646.89661872293902434 403.18226864107799656 1900.1293189278799218 2303.3115875689600216 1837.5097458835700763
  273000    49373.104    303.69414   -646.89662    1900.1293    403.18227    2303.3116    1837.5097   -777.78135    1472.4273   -1355.8626    648.33906    895.41185    215.29392            0    1759.0448   -2050.5085   -26.587387      36.6857      36.6857      36.6857            0            0            0   0.64747183 
274000 0.64747182761157595632 299.63363540056502643 -512.52768313413002943 376.28821575388400333 1874.7238476603599793 2251.0120634142499512 1881.9633903976500733
274000 0.64747182761157595632 299.63363540056502643 -512.52768313413002943 376.28821575388400333 1874.7238476603599793 2251.0120634142499512 1881.9633903976500733
  274000    49373.104    299.63364   -512.52768    1874.7238    376.28822    2251.0121    1881.9634   -776.98275    1465.5933   -1359.6477    640.36605    907.02852    188.54134            0    1735.9359   -2048.2582   -26.587387      36.6857      36.6857      36.6857            0            0            0   0.64747183 
275000 0.64747182761157595632 302.29500821643802055 541.69941913228296926 370.16617853395501925 1891.3753129698600333 2261.5414915038199979 2651.5954503107900564
275000 0.64747182761157595632 302.29500821643802055 541.69941913228296926 370.16617853395501925 1891.3753129698600333 2261.5414915038199979 2651.5954503107900564
  275000    49373.104    302.29501    541.69942    1891.3753    370.16618    2261.5415    2651.5955   -786.24441    1493.9814   -1341.4054    633.95311    900.01117    177.60734            0    1711.5716   -2049.1425   -26.587387      36.6857      36.6857      36.6857            0            0            0   0.64747183 
276000 0.64747182761157595632 303.4992422408079733 264.68769622298498234 387.22301426391101131 1898.9098684300099649 2286.1328826939197825 2476.7228669413598254
276000 0.64747182761157595632 303.4992422408079733 264.68769622298498234 387.22301426391101131 1898.9098684300099649 2286.1328826939197825 2476.7228669413598254
  276000    49373.104    303.49924     264.6877    1898.9099    387.22301    2286.1329    2476.7229   -795.89733    1510.3357   -1332.8416    650.93637    883.08803    186.04025            0    1720.0646     -2047.28   -26.587387      36.6857      36.6857      36.6857            0            0            0   0.64747183 
277000 0.64747182761157695552 312.55883624271001509 -251.5767220907430044 365.47330697097402208 1955.593214085720092 2321.0665210566899077 2139.9171734122701309
277000 0.64747182761157695552 312.55883624271001509 -251.5767220907430044 365.47330697097402208 1955.593214085720092 2321.0665210566899077 2139.9171734122701309
  277000    49373.104    312.55884   -251.57672    1955.5932    365.47331    2321.0665    2139.9172   -763.70595    1481.8506   -1331.2977    642.81813    868.73003    185.22288            0     1696.771   -2049.4424   -26.587387      36.6857      36.6857      36.6857            0            0            0   0.64747183 
278000 0.64747182761157595632 317.01573706156602839 137.44573149099699094 391.87672848687998339 1983.4787958916299431 2375.3555243785099265 2474.32415863524011
278000 0.64747182761157595632 317.01573706156602839 137.44573149099699094 391.87672848687998339 1983.4787958916299431 2375.3555243785099265 2474.32415863524011
  278000    49373.104    317.01574    137.44573    1983.4788    391.87673    2375.3555    2474.3242   -745.47463    1471.9289   -1321.1019    624.62116    889.74171    198.61571            0    1712.9786   -2047.5561   -26.587387      36.6857      36.6857      36.6857            0            0            0   0.64747183 
279000 0.64747182761157595632 309.25019093874300324 185.46068347679999988 358.5475735668969719 1934.8919458636000854 2293.4395194304897814 2426.981611665049968
279000 0.64747182761157595632 309.25019093874300324 185.46068347679999988 358.5475735668969719 1934.8919458636000854 2293.4395194304897814 2426.981611665049968
  279000    49373.104    309.25019    185.46068    1934.8919    358.54757    2293.4395    2426.9816     -788.498    1481.8859   -1354.0796    627.43603    896.39142    188.79973            0    1712.6272   -2047.4675   -26.587387      36.6857      36.6857      36.6857            0            0            0   0.64747183 
280000 0.64747182761157595632 317.32517766825600347 566.52280279922604223 303.21706440971701113 1985.4148792155899628 2288.631943625310214 2696.560130700389891
280000 0.64747182761157595632 317.32517766825600347 566.52280279922604223 303.21706440971701113 1985.4148792155899628 2288.631943625310214 2696.560130700389891
  280000    49373.104    317.32518     566.5228    1985.4149    303.21706    2288.6319    2696.5601   -786.01201    1485.8764   -1350.8117    624.11824    831.19813     198.7124            0    1654.0288   -2050.6761   -26.587387      36.6857      36.6857      36.6857            0            0            0   0.64747183 
  280396    49373.104     317.8786    375.70319    1988.8775    373.69287    2362.5704    2633.0977   -776.24862    1494.8998   -1330.2042    626.51444    881.68696    195.69562            0     1703.897   -2048.8554   -26.587387      36.6857      36.6857      36.6857            0            0            0   0.64747183 
Loop time of 63.0392 on 48 procs for 30000 steps with 2100 atoms

Performance: 41.117 ns/day, 0.584 hours/ns, 475.894 timesteps/s
41.0% CPU use with 48 MPI tasks x 1 OpenMP threads

MPI task timing breakdown:
Section |  min time  |  avg time  |  max time  |%varavg| %total
---------------------------------------------------------------
Pair    | 1.4506     | 7.3237     | 17.896     | 187.8 | 11.62
Bond    | 0.068313   | 0.69243    | 1.6072     |  59.0 |  1.10
Kspace  | 10.495     | 21.477     | 27.943     | 119.5 | 34.07
Neigh   | 3.1519     | 3.4761     | 3.746      |  10.5 |  5.51
Comm    | 18.763     | 21.749     | 25.098     |  32.0 | 34.50
Output  | 0.14114    | 0.14142    | 0.14164    |   0.0 |  0.22
Modify  | 2.6302     | 5.1972     | 7.0714     |  48.8 |  8.24
Other   |            | 2.982      |            |       |  4.73

Nlocal:    43.75 ave 92 max 7 min
Histogram: 5 7 4 9 4 4 5 5 4 1
Nghost:    1965.54 ave 2074 max 1861 min
Histogram: 4 6 3 8 1 1 14 6 4 1
Neighs:    10003 ave 24767 max 1180 min
Histogram: 9 10 3 8 3 3 2 5 3 2

Total # of neighbors = 480146
Ave neighs/atom = 228.641
Ave special neighs/atom = 8.14286
Neighbor list builds = 3043
Dangerous builds = 0

write_data      restart.${NAME}.final.data
write_data      restart.DCM_octanol_75p.final.data
Ewald initialization ...
  using 12-bit tables for long-range coulomb (src/kspace.cpp:332)
  G vector (1/distance) = 0.155477
  estimated absolute RMS force accuracy = 0.0340968
  estimated relative force accuracy = 0.000102681
  KSpace vectors: actual max1d max3d = 128 4 364
                  kxmax kymax kzmax  = 4 4 4
Total wall time: 0:09:24
