
variable        infile index DCM_octanol_25p.data   # The name of the (edited) data file

#>>>>>> Simulation settings <<<<<<<

units		 real		#angstroms = length -
atom_style	 full		#How the atoms are defined in the input data file
boundary        p p p           #periodic box in x, y and z
pair_style	 lj/cut/coul/long 12.0    #'lj/cut/coul/long
pair_modify     tail yes            #Tail corrections
pair_modify     mix arithmetic      #Lorentz-Berthelot pair interactions between dissimilar atom

special_bonds   lj/coul 0.0 0.0 0.5
kspace_style    ewald 0.0001
bond_style      harmonic
angle_style     harmonic
dihedral_style  opls


# inputs settings
variable   simulationTemp  index 310     #Simulation temperature
variable   simulationPress equal 0.987	 #Simulation pressure

# Output files frequencies
variable        dumpfreq   index 1000          #Output frequency of dump information to dump
variable        thermofreq index 1000          #Output frequency of property information to log
variable        printfreq  index 1000          #Output frequency of information to be printed
variable        restartfreq index 1000000      #Output frequency of restart files


# Simulation run times (equilibration and production)
variable        NVT_equib  index 100000       # Equilibration run length (in timesteps)
variable        NVT_prod   index 30000       # Simulation run length  (in timesteps)


# Output
variable    step        equal step
variable    density     equal density
variable    temp        equal temp
variable    press       equal press
variable    ke          equal ke
variable    pe          equal pe
variable    etotal      equal etotal
variable    enthalpy    equal enthalpy


# >>>>>>>>>>> Reading data, Neighbor list settings, energy minimization, assigning initial velocities & specifying thermodynamic property output style to log files <<<<<<<<<

read_data	${infile}
read_data	DCM_octanol_25p.data
  orthogonal box = (0 0 0) to (40 40 40)
  3 by 4 by 4 MPI processor grid
  reading atoms ...
  4300 atoms
  scanning bonds ...
  1 = max bonds/atom
  scanning angles ...
  6 = max angles/atom
  scanning dihedrals ...
  10 = max dihedrals/atom
  reading bonds ...
  4100 bonds
  reading angles ...
  7650 angles
  reading dihedrals ...
  9900 dihedrals
  4 = max # of 1-2 neighbors
  6 = max # of 1-3 neighbors
  12 = max # of 1-4 neighbors
  16 = max # of special neighbors
  special bonds CPU = 0.017997 secs
  read_data CPU = 0.07022 secs
neighbor        1.0 bin
neigh_modify    delay 0 every 1 check yes page 1000000 one 20000
timestep        1.0

minimize        1e-4 1e-6 10000 100000        #Energy minimize before creating velocities
Ewald initialization ...
WARNING: System is not charge neutral, net charge = -10 (src/kspace.cpp:313)
  using 12-bit tables for long-range coulomb (src/kspace.cpp:332)
  G vector (1/distance) = 0.162932
  estimated absolute RMS force accuracy = 0.033459
  estimated relative force accuracy = 0.000100761
  KSpace vectors: actual max1d max3d = 257 5 665
                  kxmax kymax kzmax  = 5 5 5
Neighbor list info ...
  update every 1 steps, delay 0 steps, check yes
  max neighbors/atom: 20000, page size: 1000000
  master list distance cutoff = 13
  ghost atom cutoff = 13
  binsize = 6.5, bins = 7 7 7
  1 neighbor lists, perpetual/occasional/extra = 1 0 0
  (1) pair lj/cut/coul/long, perpetual
      attributes: half, newton on
      pair build: half/bin/newton
      stencil: half/bin/3d/newton
      bin: standard
Per MPI rank memory allocation (min/avg/max) = 25.15 | 25.23 | 25.69 Mbytes
Step Temp E_pair E_mol TotEng Press 
       0            0    3317.9801    1306.9774    4624.9575    6428.3004 
     486            0   -2057.7092    655.03085   -1402.6784   -775.27257 
Loop time of 4.26747 on 48 procs for 486 steps with 4300 atoms

50.6% CPU use with 48 MPI tasks x 1 OpenMP threads

Minimization stats:
  Stopping criterion = linesearch alpha is zero
  Energy initial, next-to-last, final = 
         4624.95750156     -1402.67835484     -1402.67835484
  Force two-norm initial, final = 3612.74 22.8387
  Force max component initial, final = 1002.72 2.64652
  Final line search alpha, max atom move = 2.21543e-11 5.86318e-11
  Iterations, force evaluations = 486 1013

MPI task timing breakdown:
Section |  min time  |  avg time  |  max time  |%varavg| %total
---------------------------------------------------------------
Pair    | 0.12761    | 1.0424     | 2.2348     |  52.7 | 24.43
Bond    | 0.013029   | 0.066559   | 0.10777    |   9.8 |  1.56
Kspace  | 0.5677     | 1.7572     | 2.6121     |  39.7 | 41.18
Neigh   | 0.086241   | 0.092745   | 0.097117   |   1.3 |  2.17
Comm    | 0.66329    | 0.76397    | 0.90427    |   7.5 | 17.90
Output  | 0          | 0          | 0          |   0.0 |  0.00
Modify  | 0          | 0          | 0          |   0.0 |  0.00
Other   |            | 0.5446     |            |       | 12.76

Nlocal:    89.5833 ave 139 max 12 min
Histogram: 2 2 1 7 6 5 3 5 11 6
Nghost:    3302.85 ave 3449 max 3139 min
Histogram: 1 3 3 5 10 7 8 5 5 1
Neighs:    31401.3 ave 69925 max 2695 min
Histogram: 5 7 8 3 5 5 7 5 2 1

Total # of neighbors = 1507264
Ave neighs/atom = 350.527
Ave special neighs/atom = 10.0698
Neighbor list builds = 39
Dangerous builds = 0
#velocity	all create ${simulationTemp} 886874 mom yes rot yes dist gaussian

velocity        all create  ${simulationTemp} 317879265 units box
velocity        all create  310 317879265 units box
velocity        all zero linear units box

# The 'velocity' command line above assigns initial velocities to the atoms in our data file, see the LAMMPS 'velocity' command
# The number '886874' is the seed number which helps LAMMPS to consistently assign the same randomized velocities for the same simulation with the same seed number
# Changing that seed number for your simulation of a given system is one easy way to run an 'independent' simulation of the same system as taught in class
# You will need to do this for your homework

thermo_style    custom step vol temp press ke pe etotal enthalpy evdwl ecoul epair ebond eangle edihed eimp emol elong etail lx ly lz xy xz yz density
thermo          ${thermofreq}
thermo          1000

fix npt_density all npt temp ${simulationTemp} ${simulationTemp} 100 iso ${simulationPress} ${simulationPress} 1000
fix npt_density all npt temp 310 ${simulationTemp} 100 iso ${simulationPress} ${simulationPress} 1000
fix npt_density all npt temp 310 310 100 iso ${simulationPress} ${simulationPress} 1000
fix npt_density all npt temp 310 310 100 iso 0.987 ${simulationPress} 1000
fix npt_density all npt temp 310 310 100 iso 0.987 0.987 1000

run 50000
Ewald initialization ...
  using 12-bit tables for long-range coulomb (src/kspace.cpp:332)
  G vector (1/distance) = 0.162932
  estimated absolute RMS force accuracy = 0.033459
  estimated relative force accuracy = 0.000100761
  KSpace vectors: actual max1d max3d = 257 5 665
                  kxmax kymax kzmax  = 5 5 5
Per MPI rank memory allocation (min/avg/max) = 24.02 | 24.15 | 24.56 Mbytes
Step Volume Temp Press KinEng PotEng TotEng Enthalpy E_vdwl E_coul E_pair E_bond E_angle E_dihed E_impro E_mol E_long E_tail Lx Ly Lz Xy Xz Yz Density 
     486        64000          310    2062.0997    3972.4957   -1402.6784    2569.8174    4494.5284   -1793.5902    3748.2055   -2057.7092    28.574193    181.55945     444.8972            0    655.03085   -4012.3245   -48.842573           40           40           40            0            0            0   0.61701893 
    1000    65679.909    257.64403    1704.8864    3301.5801    2006.2068    5307.7868    6940.8534   -1358.0935    3811.5731   -1561.2376    1200.2081    1703.9885    663.24783            0    3567.4444   -4014.7172   -47.593316    40.346963    40.346963    40.346963            0            0            0    0.6012373 
    2000    61340.809    317.82074    536.59059    4072.7146    2714.3764     6787.091     7267.121    -1249.009    3805.4991   -1468.5335    1377.8605    2044.8974    760.15204            0    4182.9099   -4025.0237   -50.959952    39.438147    39.438147    39.438147            0            0            0   0.64376738 
    3000    56633.539    304.39524    41.036618    3900.6735    2619.9854     6520.659    6554.5528   -1312.1496    3796.2725   -1545.8344    1347.6783    2023.6163    794.52523            0    4165.8198   -4029.9574   -55.195643    38.402359    38.402359    38.402359            0            0            0   0.69727607 
    4000    53813.818     304.1599   -1438.8796    3897.6578    2439.1207    6336.7786    5207.5181   -1349.6535    3749.2449   -1634.1336    1300.6095    1984.8376     787.8072            0    4073.2543    -4033.725    -58.08777    37.754142    37.754142    37.754142            0            0            0   0.73381175 
    5000    51697.325    308.97964   -151.25204    3959.4203    2390.2374    6349.6577    6235.6209   -1410.4185    3741.4094   -1705.5539    1332.2412    1947.8866    815.66354            0    4095.7913   -4036.5448   -60.465887    37.252552    37.252552    37.252552            0            0            0   0.76385406 
    6000    50776.762    320.67347   -957.47921    4109.2709    2254.1421     6363.413    5654.3738   -1447.2565    3731.0597   -1755.0388    1324.4608    1912.7396    771.98048            0    4009.1808    -4038.842   -61.562111     37.03011     37.03011     37.03011            0            0            0   0.77770244 
    7000    48935.065    307.15045    566.76105    3935.9802    2177.1601    6113.1403    6517.6194   -1478.0191    3679.2519   -1835.0952    1301.2313    1934.1821    776.84198            0    4012.2554   -4036.3281   -63.879033    36.576886    36.576886    36.576886            0            0            0   0.80697167 
    8000     48849.06    307.34651    405.98029    3938.4926    2154.4463    6092.9388    6382.1647   -1489.8517    3698.1027   -1830.8883    1306.5439     1950.037    728.75369            0    3985.3346   -4039.1393     -63.9915    36.555445    36.555445    36.555445            0            0            0   0.80839245 
    9000    49027.843    311.00488   -522.37296    3985.3728    2158.5627    6143.9355     5770.428   -1489.9361    3658.5025   -1870.0154    1351.0837    1955.6303    721.86407            0    4028.5781   -4038.5818   -63.758151    36.599987    36.599987    36.599987            0            0            0    0.8054446 
   10000    48500.441    309.60366   -176.03634    3967.4168    2089.9511    6057.3679    5932.8523   -1513.3085     3671.982   -1882.1458     1347.859    1934.8591     689.3787            0    3972.0969   -4040.8193   -64.451469    36.468276    36.468276    36.468276            0            0            0   0.81420315 
   11000    47955.434    302.01698   -22.968671    3870.1973    2081.1621    5951.3594    5935.2956   -1559.2381    3691.6538   -1908.2685    1330.4332      1962.15    696.84742            0    3989.4307   -4040.6842   -65.183951    36.331161    36.331161    36.331161            0            0            0   0.82345645 
   12000    48156.865    306.27782    771.78649    3924.7979    2067.9553    5992.7531    6534.7931    -1504.698    3640.2835   -1904.6241    1290.7589    1985.4147    696.40588            0    3972.5794   -4040.2096   -64.911299    36.381958    36.381958    36.381958            0            0            0   0.82001209 
   13000    47732.413    307.59433    318.36103    3941.6683    2047.5877     5989.256    6210.8761   -1516.4295    3584.6699   -1971.1916    1285.6359    2021.6349    711.50845            0    4018.7793   -4039.4319   -65.488511    36.274753    36.274753    36.274753            0            0            0    0.8273039 
   14000    47515.536    305.00859   -391.88079    3908.5333    2036.6174    5945.1507    5673.5909   -1554.9565    3638.6202   -1954.0039    1326.2792     1973.119    691.22306            0    3990.6213   -4037.6677   -65.787422     36.21973     36.21973     36.21973            0            0            0   0.83107999 
   15000     47105.63    308.34858    2079.7358    3951.3336    2021.5551    5972.8886    7401.6407   -1518.3248    3597.7191   -1960.3764    1325.7708    1991.7538    664.40681            0    3981.9314   -4039.7707   -66.359895    36.115276    36.115276    36.115276            0            0            0   0.83831194 
   16000    47661.647    316.21077  -0.93167209    4052.0837    1896.5498    5948.6335    5947.9859   -1546.0558     3581.772    -2005.599    1319.7018    1933.3057    649.14132            0    3902.1488   -4041.3152   -65.585746    36.256818    36.256818    36.256818            0            0            0   0.82853225 
   17000    46745.441    313.08456    921.91542    4012.0229    1828.9293    5840.9522    6469.4535   -1584.6947    3544.5924   -2077.0538    1288.0144    1941.3309    676.63782            0    3905.9831   -4036.9516    -66.87122     36.02299     36.02299     36.02299            0            0            0    0.8447714 
   18000    46744.918     304.2255   -793.93325    3898.4984    1921.7162    5820.2147    5278.9692   -1598.7229    3544.5788   -2091.0783    1344.7415    2017.9279    650.12515            0    4012.7945   -4036.9343   -66.871967    36.022855    36.022855    36.022855            0            0            0   0.84478084 
   19000    46971.929     310.7338   -388.78777     3981.899    1810.2542    5792.1533    5525.8191   -1592.4193    3550.8608   -2081.2303    1291.4489    1960.1071    639.92859            0    3891.4846   -4039.6718   -66.548781    36.081075    36.081075    36.081075            0            0            0    0.8406981 
   20000    46743.041    308.93597   -1149.6771    3958.8607    1865.6272    5824.4879    5040.7539   -1611.6681    3551.8418   -2101.7009    1333.7689    1961.4476    672.11156            0    3967.3281   -4041.8746   -66.874653    36.022373    36.022373    36.022373            0            0            0   0.84481477 
   21000    47001.467    306.53356    438.82385     3928.075    1860.0438    5788.1189    6088.9187   -1570.8094    3568.0323   -2042.9482     1294.181    1963.3725    645.43856            0     3902.992   -4040.1711    -66.50696    36.088636    36.088636    36.088636            0            0            0   0.84016977 
   22000    46780.286     309.8017    1387.4232    3969.9546    1747.1364     5717.091      6663.65   -1574.7155    3500.8617   -2116.5206    1277.1249     1918.606    667.92611            0     3863.657   -4042.6668    -66.82141    36.031938    36.031938    36.031938            0            0            0   0.84414216 
   23000    46740.141    310.03783   -201.46464    3972.9805    1786.9414    5759.9219    5622.5921   -1603.5914    3516.4578   -2127.4132    1325.4188    1936.1256    652.81011            0    3914.3546   -4040.2796   -66.878802    36.021628    36.021628    36.021628            0            0            0   0.84486719 
   24000    47310.908    312.47408   -1294.5475    4004.1999    1896.9589    5901.1588    5007.9455   -1574.9793    3514.3393   -2100.3345    1360.6498    2016.4934    620.15009            0    3997.2933   -4039.6945   -66.071965    36.167661    36.167661    36.167661            0            0            0   0.83467457 
   25000    46288.983    312.27927     25.60958    4001.7034    1806.9765    5808.6799    5825.9684   -1568.5121     3455.047    -2155.326    1344.6294    1979.1907    638.48245            0    3962.3025   -4041.8609   -67.530641    35.905354    35.905354    35.905354            0            0            0   0.85310174 
   26000     46648.37    303.39118    430.35549     3887.807     1807.645     5695.452    5988.2309   -1583.1319    3501.7747   -2123.7325    1292.8631    2004.8838    633.63067            0    3931.3775   -4042.3753   -67.010372    35.998037    35.998037    35.998037            0            0            0   0.84652929 
   27000     46599.81    304.82927   -852.44745    3906.2355    1809.2091    5715.4445    5136.1124   -1581.4425    3481.0978   -2139.9637    1313.1014     1997.042    639.02939            0    3949.1728    -4039.619   -67.080202    35.985542    35.985542    35.985542            0            0            0   0.84741143 
   28000    45952.565    306.32069    726.47275    3925.3472    1725.7361    5651.0833    6137.9443   -1632.5504    3517.0643   -2156.2297    1315.0854    1951.1194    615.76107            0    3881.9658   -4040.7436   -68.025031    35.818158    35.818158    35.818158            0            0            0   0.85934728 
   29000    45553.966    311.56761    257.96636    3992.5839    1778.0228    5770.6067    5941.9887   -1604.1205    3452.6966   -2193.8906    1325.2326    2002.4469    644.23395            0    3971.9134   -4042.4667   -68.620253    35.714294    35.714294    35.714294            0            0            0    0.8668666 
   30000    45883.149    304.94845    875.47392    3907.7626    1747.7359    5655.4986    6241.3295   -1623.1827    3506.6998   -2155.4502    1299.7877    1958.4505    644.94786            0    3903.1861   -4038.9672   -68.127945    35.800114    35.800114    35.800114            0            0            0   0.86064737 
   31000    45967.738    311.99157   -1253.5024    3998.0167    1829.2526    5827.2693    4986.9309   -1623.3431    3499.3442   -2164.1441    1378.6112    1979.7142    635.07126            0    3993.3966   -4040.1451   -68.002577      35.8221      35.8221      35.8221            0            0            0   0.85906363 
   32000    46254.401    311.25439    774.03776    3988.5702    1771.7907    5760.3608    6282.5058   -1592.9393    3518.9754   -2111.1862    1285.4573    1966.5126    631.00693            0    3882.9769   -4037.2224   -67.581129     35.89641     35.89641     35.89641            0            0            0   0.85373954 
   33000    46363.502    308.41659   -717.77717    3952.2051    1662.5787    5614.7838    5129.4487   -1628.3047    3497.3896   -2168.7686    1309.5238    1901.5094    620.31402            0    3831.3473   -4037.8534   -67.422099    35.924611    35.924611    35.924611            0            0            0   0.85173056 
   34000     46132.59    306.70518   -433.27474    3930.2743    1786.9689    5717.2432    5425.7375   -1609.8235    3504.7436   -2145.9147    1355.5714    1980.3593    596.95297            0    3932.8836   -4040.8348   -67.759573    35.864872    35.864872    35.864872            0            0            0    0.8559938 
   35000    45831.876    304.50411    302.12041    3902.0687     1721.738    5623.8068    5825.7473   -1634.6029    3483.2057   -2193.5539    1294.4984    1996.8071    623.98647            0     3915.292   -4042.1567   -68.204162    35.786773    35.786773    35.786773            0            0            0    0.8616102 
   36000    45903.641    310.04626   -311.24252    3973.0886    1728.4819    5701.5705    5493.2068     -1613.22    3482.7965   -2170.3726    1345.8238    1971.3226    581.70804            0    3898.8544   -4039.9491   -68.097531    35.805442    35.805442    35.805442            0            0            0   0.86026316 
   37000    45820.568    313.90981    786.73449     4022.598    1711.4546    5734.0526    6259.7847   -1601.8888    3456.0488   -2188.5487    1332.3585     1960.355    607.28975            0    3900.0032   -4042.7087   -68.220994     35.78383     35.78383     35.78383            0            0            0   0.86182284 
   38000    45672.282    317.21685   -30.419357    4064.9761    1692.6513    5757.6274    5737.3655   -1635.2969    3457.4641   -2218.9148    1327.0454    1988.6756    595.84502            0    3911.5661    -4041.082   -68.442489    35.745187    35.745187    35.745187            0            0            0   0.86462094 
   39000    45834.085    318.57939    557.00556    4082.4363    1717.8324    5800.2688    6172.5953   -1604.3701    3425.6162   -2219.1252     1364.811    1955.4497    616.69683            0    3936.9576   -4040.3713   -68.200874    35.787348    35.787348    35.787348            0            0            0   0.86156867 
   40000    45819.645    311.60397   -306.58144    3993.0499    1725.8427    5718.8926    5514.0249   -1633.1404    3455.0483   -2222.1691    1367.4974    1975.5119    605.00249            0    3948.0117    -4044.077   -68.222367     35.78359     35.78359     35.78359            0            0            0   0.86184019 
   41000    45941.493    315.76429   -6.9954692    4046.3622    1665.9143    5712.2765    5707.5895   -1585.5696    3424.9092   -2201.5047    1304.2364    1969.3781    593.80448            0     3867.419   -4040.8443   -68.041425    35.815281    35.815281    35.815281            0            0            0   0.85955439 
   42000    46162.839    309.27008    389.32012    3963.1422    1776.6987     5739.841    6001.9459   -1581.6209    3495.3079   -2127.9851    1347.1203    1957.8039     599.7596            0    3904.6838   -4041.6721   -67.715173    35.872709    35.872709    35.872709            0            0            0    0.8554329 
   43000    45970.389    311.16579    -110.4699    3987.4347    1643.1249    5630.5596    5556.4972   -1656.4781    3498.0741    -2201.186    1313.0103    1944.0255    587.27512            0    3844.3109    -4042.782   -67.998655    35.822789    35.822789    35.822789            0            0            0   0.85901408 
   44000    45714.383    316.27206   -386.64617     4052.869    1685.7334    5738.6024    5480.8264   -1598.4112     3477.483   -2164.3831    1319.1959    1927.4904    603.43018            0    3850.1165   -4043.4549   -68.379456    35.756167    35.756167    35.756167            0            0            0   0.86382466 
   45000    45875.543    303.48834   -114.17014     3889.052    1707.5133    5596.5653      5520.18   -1624.5589    3499.2261   -2168.4769    1296.5586    1944.3068     635.1248            0    3875.9902   -4043.1441    -68.13924    35.798135    35.798135    35.798135            0            0            0   0.86079005 
   46000    45998.624    313.68256   -758.54414     4019.686    1743.2601    5762.9461    5254.0822   -1626.1404    3473.8918   -2195.0209    1344.7489    1963.1609    630.37125            0     3938.281   -4042.7723   -67.956917    35.830121    35.830121    35.830121            0            0            0   0.85848681 
   47000    45621.835    310.00082    445.80491    3972.5063    1707.5159    5680.0221    5976.6374   -1647.8815    3523.2097   -2167.1254      1313.58    1960.7054    600.35585            0    3874.6412   -4042.4536   -68.518171    35.732021    35.732021    35.732021            0            0            0   0.86557702 
   48000    46226.956    303.27555   -605.54732    3886.3252    1747.1886    5633.5139    5225.2704   -1602.2987    3477.0597   -2168.3365    1308.2742    1995.3583    611.89262            0    3915.5252   -4043.0975   -67.621252    35.889309    35.889309    35.889309            0            0            0   0.85424641 
   49000    45746.009    309.31706    267.28541    3963.7442    1790.3072    5754.0514    5932.3731   -1671.0421    3511.1517   -2199.7272    1351.1307    2030.4905    608.41328            0    3990.0344   -4039.8369   -68.332183     35.76441     35.76441     35.76441            0            0            0   0.86322747 
   50000    46015.827    305.54884    23.186299    3915.4564    1736.9023    5652.3587    5667.9189   -1629.1189    3472.1856   -2197.6463    1328.4126    1987.7461    618.38978            0    3934.5485    -4040.713    -67.93151    35.834588    35.834588    35.834588            0            0            0   0.85816585 
   50486    45458.996    309.40286    322.13252    3964.8437    1734.3273     5699.171    5912.7361   -1637.1884    3466.1013   -2212.5904    1350.5406    1959.7305    636.64663            0    3946.9177   -4041.5034   -68.763609    35.689458    35.689458    35.689458            0            0            0   0.86867759 
Loop time of 169.444 on 48 procs for 50000 steps with 4300 atoms

Performance: 25.495 ns/day, 0.941 hours/ns, 295.083 timesteps/s
56.2% CPU use with 48 MPI tasks x 1 OpenMP threads

MPI task timing breakdown:
Section |  min time  |  avg time  |  max time  |%varavg| %total
---------------------------------------------------------------
Pair    | 35.423     | 48.728     | 55.636     |  69.7 | 28.76
Bond    | 2.4986     | 3.5031     | 4.1176     |  21.8 |  2.07
Kspace  | 22.276     | 31.219     | 45.311     |  94.6 | 18.42
Neigh   | 10.59      | 11.429     | 12.114     |  15.6 |  6.75
Comm    | 40.052     | 46.111     | 54.879     |  49.5 | 27.21
Output  | 0.062442   | 0.063494   | 0.073231   |   0.6 |  0.04
Modify  | 17.497     | 22.581     | 26.203     |  43.2 | 13.33
Other   |            | 5.81       |            |       |  3.43

Nlocal:    89.5833 ave 107 max 63 min
Histogram: 1 1 3 1 5 14 8 6 4 5
Nghost:    4283.12 ave 4333 max 4244 min
Histogram: 3 6 8 7 6 7 2 4 2 3
Neighs:    38983.7 ave 47074 max 26908 min
Histogram: 2 1 2 2 5 11 12 5 4 4

Total # of neighbors = 1871216
Ave neighs/atom = 435.167
Ave special neighs/atom = 10.0698
Neighbor list builds = 5562
Dangerous builds = 0

unfix npt_density

fix reshape_box all deform 1 x final 0.0 36.6857 y final 0.0 36.6857 z final 0.0 36.6857 units box

run 100000
Ewald initialization ...
  using 12-bit tables for long-range coulomb (src/kspace.cpp:332)
  G vector (1/distance) = 0.166537
  estimated absolute RMS force accuracy = 0.0387906
  estimated relative force accuracy = 0.000116817
  KSpace vectors: actual max1d max3d = 128 4 364
                  kxmax kymax kzmax  = 4 4 4
Per MPI rank memory allocation (min/avg/max) = 22.52 | 22.71 | 23.05 Mbytes
Step Volume Temp Press KinEng PotEng TotEng Enthalpy E_vdwl E_coul E_pair E_bond E_angle E_dihed E_impro E_mol E_long E_tail Lx Ly Lz Xy Xz Yz Density 
   50486    45458.996    309.40286    318.78171    3964.8437    1733.9476    5698.7914     5910.135   -1637.1884    3551.8388   -2212.9701    1350.5406    1959.7305    636.64663            0    3946.9177   -4127.6205   -68.763609    35.689458    35.689458    35.689458            0            0            0   0.86867759 
   51000    45478.567    309.40286    10.051428    3964.8437    1735.1213     5699.965    5706.6317   -1638.5898    3551.9672    -2214.222    1352.9662    1959.7305    636.64663            0    3949.3433   -4127.5995   -68.734019    35.694578    35.694578    35.694578            0            0            0   0.86830379 
   52000    45516.657    309.40286   -591.42713    3964.8437    1737.5953    5702.4391    5309.8416   -1641.2991    3552.1466   -2216.7109    1357.9291    1959.7305    636.64663            0    3954.3063   -4127.5584     -68.6765    35.704541    35.704541    35.704541            0            0            0   0.86757716 
   53000    45554.768    309.40286   -1191.7408    3964.8437    1740.4598    5705.3036    4913.5472   -1643.9851    3552.3829   -2219.1196    1363.2023    1959.7305    636.64663            0    3959.5795   -4127.5175   -68.619044    35.714503    35.714503    35.714503            0            0            0   0.86685134 
   54000    45592.901    309.40286   -1792.4381    3964.8437    1743.4017    5708.2454    4516.4072    -1646.646    3552.3613   -2221.7613    1368.7858    1959.7305    636.64663            0    3965.1629   -4127.4765   -68.561653    35.724466    35.724466    35.724466            0            0            0   0.86612633 
   55000    45631.054    309.40286   -2391.2111    3964.8437     1746.887    5711.7308    4120.4226   -1649.2876    3552.5537   -2224.1696    1374.6795    1959.7305    636.64663            0    3971.0566   -4127.4357   -68.504326    35.734428    35.734428    35.734428            0            0            0   0.86540212 
   56000     45669.23    309.40286   -2989.3266    3964.8437    1750.6611    5715.5049    3724.4971   -1651.9057     3552.701   -2226.5995    1380.8834    1959.7305    636.64663            0    3977.2606   -4127.3948   -68.447063     35.74439     35.74439     35.74439            0            0            0   0.86467873 
   57000    45707.426    309.40286   -3585.3928    3964.8437    1755.0068    5719.8506    3329.8424   -1654.5012    3553.0872    -2228.768    1387.3977    1959.7305    636.64663            0    3983.7748    -4127.354   -68.389864    35.754353    35.754353    35.754353            0            0            0   0.86395614 
   58000    45745.644    309.40286   -4182.8834    3964.8437    1759.2197    5724.0635     2933.439    -1657.069    3553.0026   -2231.3796    1394.2222    1959.7305    636.64663            0    3990.5993   -4127.3132   -68.332728    35.764315    35.764315    35.764315            0            0            0   0.86323436 
   59000    45783.883    309.40286   -4778.7971    3964.8437    1763.9069    5728.7507    2537.8954   -1659.6189    3553.0642   -2233.8271    1401.3569    1959.7305    636.64663            0    3997.7341   -4127.2725   -68.275656    35.774278    35.774278    35.774278            0            0            0   0.86251338 
   60000    45822.143    309.40286   -5373.7455    3964.8437    1768.9472    5733.7909    2142.6836   -1662.1443    3553.1442   -2236.2319    1408.8019    1959.7305    636.64663            0    4005.1791   -4127.2318   -68.218648     35.78424     35.78424     35.78424            0            0            0    0.8617932 
   61000    45860.425    309.40286    -5967.897    3964.8437    1774.3064    5739.1501    1747.6579   -1664.6451    3553.2083    -2238.628    1416.5572    1959.7305    636.64663            0    4012.9343   -4127.1911   -68.161703    35.794203    35.794203    35.794203            0            0            0   0.86107382 
   62000    45898.728    309.40286   -6560.1612    3964.8437    1780.2045    5745.0483    1353.7691   -1667.1293    3553.4845   -2240.7953    1424.6227    1959.7305    636.64663            0    4020.9999   -4127.1505   -68.104821    35.804165    35.804165    35.804165            0            0            0   0.86035525 
   63000    45937.052    309.40286    -7153.021    3964.8437    1786.1385    5750.9823    958.85313   -1669.5876    3553.4604   -2243.2371    1432.9985    1959.7305    636.64663            0    4029.3756   -4127.1099   -68.048003    35.814127    35.814127    35.814127            0            0            0   0.85963747 
   64000    45975.398    309.40286   -7745.2734    3964.8437    1792.3526    5757.1964    563.95945   -1672.0235    3553.3838    -2245.709    1441.6845    1959.7305    636.64663            0    4038.0617   -4127.0694   -67.991247     35.82409     35.82409     35.82409            0            0            0    0.8589205 
   65000    46013.765    309.40286   -8334.9477    3964.8437    1799.2495    5764.0933    170.81357   -1674.4407    3553.6612   -2247.8084    1450.6808    1959.7305    636.64663            0     4047.058   -4127.0289   -67.934555    35.834052    35.834052    35.834052            0            0            0   0.85820432 
   66000    46052.153    309.40286   -8925.0841    3964.8437    1806.2089    5771.0526   -223.24287   -1676.8345    3553.6673   -2250.1557    1459.9874    1959.7305    636.64663            0    4056.3645   -4126.9884   -67.877926    35.844015    35.844015    35.844015            0            0            0   0.85748893 
   67000    46090.563    309.40286   -9514.7991    3964.8437    1813.4108    5778.2546   -617.43713   -1679.2066    3553.5841   -2252.5705    1469.6042    1959.7305    636.64663            0    4065.9813    -4126.948    -67.82136    35.853977    35.853977    35.853977            0            0            0   0.85677434 
   68000    46128.994    309.40286    -10103.81    3964.8437    1820.9141    5785.7578     -1011.52    -1681.557    3553.4702   -2254.9943    1479.5312    1959.7305    636.64663            0    4075.9084   -4126.9076   -67.764857     35.86394     35.86394     35.86394            0            0            0   0.85606055 
   69000    46167.446    309.40286   -10690.716    3964.8437    1829.0073    5793.8511   -1404.2596   -1683.8838    3553.6127   -2257.1384    1489.7686    1959.7305    636.64663            0    4086.1457   -4126.8673   -67.708416    35.873902    35.873902    35.873902            0            0            0   0.85534754 
   70000     46205.92    309.40286    -11276.84    3964.8437    1837.4169    5802.2607   -1796.8178   -1686.1929    3553.7435   -2259.2764    1500.3161    1959.7305    636.64663            0    4096.6933    -4126.827   -67.652038    35.883864    35.883864    35.883864            0            0            0   0.85463533 
   71000    46244.415    309.40286   -11862.363    3964.8437    1846.1073     5810.951   -2189.3511    -1688.481    3553.8238   -2261.4439     1511.174    1959.7305    636.64663            0    4107.5511   -4126.7867   -67.595723    35.893827    35.893827    35.893827            0            0            0   0.85392391 
   72000    46282.931    309.40286   -12446.553    3964.8437    1855.2319    5820.0757   -2581.2117   -1690.7424    3554.0016   -2263.4873    1522.3421    1959.7305    636.64663            0    4118.7192   -4126.7465    -67.53947    35.903789    35.903789    35.903789            0            0            0   0.85321328 
   73000    46321.469    309.40286   -13030.406    3964.8437    1864.5835    5829.4273   -2973.2782   -1692.9828    3554.0751    -2265.614    1533.8204    1959.7305    636.64663            0    4130.1976   -4126.7063   -67.483279    35.913752    35.913752    35.913752            0            0            0   0.85250343 
   74000    46360.028    309.40286   -13613.871    3964.8437    1874.1715    5839.0152   -3365.5065    -1695.205    3554.0564   -2267.8147     1545.609    1959.7305    636.64663            0    4141.9862   -4126.6661   -67.427151    35.923714    35.923714    35.923714            0            0            0   0.85179438 
   75000    46398.609    309.40286   -14196.192    3964.8437    1884.1544    5848.9982   -3757.2259   -1697.4053    3554.1006   -2269.9306    1557.7079    1959.7305    636.64663            0    4154.0851    -4126.626   -67.371085    35.933676    35.933676    35.933676            0            0            0   0.85108611 
   76000    46437.211    309.40286   -14776.972    3964.8437    1894.6143     5859.458   -4148.0853   -1699.5826    3554.2886   -2271.8799     1570.117    1959.7305    636.64663            0    4166.4942   -4126.5859   -67.315082    35.943639    35.943639    35.943639            0            0            0   0.85037862 
   77000    46475.834    309.40286    -15356.91    3964.8437    1905.4067    5870.2504   -4538.6993   -1701.7396    3554.4785   -2273.8069    1582.8364    1959.7305    636.64663            0    4179.2136   -4126.5459    -67.25914    35.953601    35.953601    35.953601            0            0            0   0.84967192 
   78000    46514.479    309.40286   -15935.846    3964.8437    1916.5655    5881.4093   -4928.9265   -1703.8747    3554.7028   -2275.6777    1595.8661    1959.7305    636.64663            0    4192.2432   -4126.5059    -67.20326    35.963564    35.963564    35.963564            0            0            0     0.848966 
   79000    46553.145    309.40286   -16515.603    3964.8437    1927.7128    5892.5565   -5320.3799   -1705.9893    3554.5849   -2277.8704     1609.206    1959.7305    636.64663            0    4205.5831   -4126.4659   -67.147442    35.973526    35.973526    35.973526            0            0            0   0.84826087 
   80000    46591.833    309.40286   -17093.006    3964.8437    1939.5046    5904.3483   -5710.2486   -1708.0886    3554.7858   -2279.7287    1622.8561    1959.7305    636.64663            0    4219.2333    -4126.426   -67.091686    35.983489    35.983489    35.983489            0            0            0   0.84755651 
   81000    46630.542    309.40286   -17669.928    3964.8437    1951.5584    5916.4022   -6100.1846   -1710.1607    3554.9114   -2281.6353    1636.8165    1959.7305    636.64663            0    4233.1937   -4126.3861   -67.035992    35.993451    35.993451    35.993451            0            0            0   0.84685293 
   82000    46669.273    309.40286   -18245.838    3964.8437    1963.9795    5928.8232   -6489.7223    -1712.217    3555.0783   -2283.4849    1651.0872    1959.7305    636.64663            0    4247.4644   -4126.3462   -66.980359    36.003413    36.003413    36.003413            0            0            0   0.84615014 
   83000    46708.025    309.40286   -18819.661    3964.8437    1976.9948    5941.8386   -6877.9007   -1714.2504    3555.5064   -2285.0505    1665.6681    1959.7305    636.64663            0    4262.0453   -4126.3064   -66.924788    36.013376    36.013376    36.013376            0            0            0   0.84544812 
   84000    46746.798    309.40286   -19394.155    3964.8437    1990.0321    5954.8758   -7267.1685   -1716.2596    3555.6218   -2286.9044    1680.5593    1959.7305    636.64663            0    4276.9365   -4126.2666   -66.869278    36.023338    36.023338    36.023338            0            0            0   0.84474687 
   85000    46785.593    309.40286   -19968.854    3964.8437    2003.1858    5968.0295   -7657.1169   -1718.2495    3555.5242   -2288.9522    1695.7608    1959.7305    636.64663            0    4292.1379   -4126.2269    -66.81383    36.033301    36.033301    36.033301            0            0            0    0.8440464 
   86000    46824.409    309.40286   -20541.164    3964.8437    2016.9954    5981.8391   -8045.4338   -1720.2236    3555.7565   -2290.6542    1711.2725    1959.7305    636.64663            0    4307.6496   -4126.1872   -66.758443    36.043263    36.043263    36.043263            0            0            0   0.84334671 
   87000    46863.247    309.40286   -21113.477    3964.8437    2030.9632     5995.807   -8434.2493   -1722.1807    3555.8198   -2292.5084    1727.0944    1959.7305    636.64663            0    4323.4716   -4126.1475   -66.703117    36.053226    36.053226    36.053226            0            0            0   0.84264779 
   88000    46902.106    309.40286   -21685.795    3964.8437     2045.092    6009.9358   -8823.5624   -1724.1134    3555.7095   -2294.5118    1743.2267    1959.7305    636.64663            0    4339.6038   -4126.1079   -66.647852    36.063188    36.063188    36.063188            0            0            0   0.84194964 
   89000    46940.987    309.40286   -22255.968    3964.8437    2059.8289    6024.6727    -9211.455    -1726.026    3555.8768   -2296.2174    1759.6691    1959.7305    636.64663            0    4356.0463   -4126.0683   -66.592648     36.07315     36.07315     36.07315            0            0            0   0.84125226 
   90000    46979.889    309.40286     -22826.7    3964.8437    2074.6086    6039.4523   -9600.3409   -1727.9213    3555.7596   -2298.1905    1776.4219    1959.7305    636.64663            0     4372.799   -4126.0287   -66.537505    36.083113    36.083113    36.083113            0            0            0   0.84055565 
   91000    47018.813    309.40286    -23395.84    3964.8437    2089.8819    6054.7257   -9988.2969   -1729.7967    3555.8058   -2299.9801    1793.4849    1959.7305    636.64663            0     4389.862   -4125.9892   -66.482424    36.093075    36.093075    36.093075            0            0            0   0.83985981 
   92000    47057.758    309.40286   -23964.174    3964.8437    2105.4851    6070.3289   -10376.023   -1731.6521    3555.8517   -2301.7502    1810.8581    1959.7305    636.64663            0    4407.2353   -4125.9497   -66.427402    36.103038    36.103038    36.103038            0            0            0   0.83916474 
   93000    47096.725    309.40286   -24530.783    3964.8437    2121.6096    6086.4533   -10762.697   -1733.4911    3556.0922   -2303.3092    1828.5416    1959.7305    636.64663            0    4424.9188   -4125.9103   -66.372442       36.113       36.113       36.113            0            0            0   0.83847044 
   94000    47135.713    309.40286   -25096.993    3964.8437    2137.9765    6102.8202   -11149.506   -1735.3162     3556.251   -2304.9361    1846.5354    1959.7305    636.64663            0    4442.9126   -4125.8709   -66.317542    36.122963    36.122963    36.122963            0            0            0    0.8377769 
   95000    47174.723    309.40286   -25661.575    3964.8437    2154.8501    6119.6938    -11535.34   -1737.1145    3556.5796   -2306.3665    1864.8394    1959.7305    636.64663            0    4461.2166   -4125.8315   -66.262703    36.132925    36.132925    36.132925            0            0            0   0.83708412 
   96000    47213.754    309.40286   -26226.945    3964.8437    2171.7193     6136.563   -11922.371   -1738.8942    3556.5748   -2308.1116    1883.4537    1959.7305    636.64663            0    4479.8309   -4125.7922   -66.207924    36.142887    36.142887    36.142887            0            0            0   0.83639211 
   97000    47252.807    309.40286   -26790.932    3964.8437    2189.0412    6153.8849    -12308.65   -1740.6535    3556.6922   -2309.7142    1902.3782    1959.7305    636.64663            0    4498.7554   -4125.7529   -66.153206     36.15285     36.15285     36.15285            0            0            0   0.83570086 
   98000    47291.881    309.40286   -27354.579    3964.8437     2206.596    6171.4398   -12695.111   -1742.3954    3556.7149   -2311.3942     1921.613    1959.7305    636.64663            0    4517.9902   -4125.7136   -66.098547    36.162812    36.162812    36.162812            0            0            0   0.83501038 
   99000    47330.977    309.40286   -27917.241    3964.8437    2224.5188    6189.3626   -13081.176   -1744.1213    3556.7793   -2313.0164    1941.1581    1959.7305    636.64663            0    4537.5352   -4125.6744   -66.043949    36.172775    36.172775    36.172775            0            0            0   0.83432065 
  100000    47370.094    309.40286    -28480.09    3964.8437    2242.5652     6207.409   -13467.897   -1745.8258    3556.6356   -2314.8253    1961.0134    1959.7305    636.64663            0    4557.3906   -4125.6352   -65.989411    36.182737    36.182737    36.182737            0            0            0   0.83363168 
  101000    47409.233    309.40286   -29041.225    3964.8437    2261.1339    6225.9776   -13853.562   -1747.5146    3556.6884   -2316.4223     1981.179    1959.7305    636.64663            0    4577.5561   -4125.5961   -65.934934      36.1927      36.1927      36.1927            0            0            0   0.83294348 
  102000    47448.394    309.40286   -29600.992    3964.8437    2280.1534    6244.9971   -14238.479   -1749.1872    3556.8655   -2317.8786    2001.6548    1959.7305    636.64663            0     4598.032    -4125.557   -65.880516    36.202662    36.202662    36.202662            0            0            0   0.83225602 
  103000    47487.576    309.40286   -30161.154    3964.8437    2299.2518    6264.0956    -14624.24     -1750.84    3556.7917   -2319.5662    2022.4409    1959.7305    636.64663            0     4618.818   -4125.5179   -65.826158    36.212624    36.212624    36.212624            0            0            0   0.83156933 
  104000    47526.779    309.40286   -30720.005    3964.8437    2318.7915    6283.6353   -15009.301   -1752.4713    3556.8273   -2321.1229    2043.5372    1959.7305    636.64663            0    4639.9144   -4125.4788   -65.771859    36.222587    36.222587    36.222587            0            0            0   0.83088339 
  105000    47566.004    309.40286   -31277.091    3964.8437    2338.8659    6303.7097   -15393.252   -1754.0887    3557.0735   -2322.4551    2064.9438    1959.7305    636.64663            0     4661.321   -4125.4398   -65.717621    36.232549    36.232549    36.232549            0            0            0   0.83019821 
  106000    47605.251    309.40286   -31833.494    3964.8437    2359.2484    6324.0922   -15777.068   -1755.6874    3557.2989   -2323.7894    2086.6607    1959.7305    636.64663            0    4683.0378   -4125.4009   -65.663442    36.242512    36.242512    36.242512            0            0            0   0.82951377 
  107000    47644.519    309.40286   -32389.402    3964.8437    2379.8994    6344.7432   -16160.917   -1757.2675    3557.4639   -2325.1655    2108.6878    1959.7305    636.64663            0    4705.0649    -4125.362   -65.609323    36.252474    36.252474    36.252474            0            0            0   0.82883009 
  108000    47683.809    309.40286   -32943.147    3964.8437    2401.1744    6366.0182   -16543.287   -1758.8252    3557.9204   -2326.2279    2131.0252    1959.7305    636.64663            0    4727.4023   -4125.3231   -65.555263    36.262436    36.262436    36.262436            0            0            0   0.82814716 
  109000    47723.121    309.40286   -33497.497    3964.8437    2422.4821    6387.3259    -16926.69   -1760.3713    3558.0877   -2327.5678    2153.6728    1959.7305    636.64663            0      4750.05   -4125.2842   -65.501262    36.272399    36.272399    36.272399            0            0            0   0.82746499 
  110000    47762.454    309.40286   -34051.746    3964.8437    2443.9754    6408.8192   -17310.483   -1761.8982    3558.1111   -2329.0324    2176.6307    1959.7305    636.64663            0    4773.0078   -4125.2454   -65.447321    36.282361    36.282361    36.282361            0            0            0   0.82678356 
  111000    47801.809    309.40286   -34604.102    3964.8437    2466.0345    6430.8783   -17693.037   -1763.4089     3558.374   -2330.2415    2199.8988    1959.7305    636.64663            0     4796.276   -4125.2066   -65.393439    36.292324    36.292324    36.292324            0            0            0   0.82610287 
  112000    47841.185    309.40286   -35156.879    3964.8437    2488.1689    6453.0126   -18076.456   -1764.8994    3558.3817   -2331.6855    2223.4772    1959.7305    636.64663            0    4819.8544   -4125.1679   -65.339616    36.302286    36.302286    36.302286            0            0            0   0.82542294 
  113000    47880.583    309.40286   -35709.529    3964.8437    2510.4931    6475.3368   -18460.242   -1766.3754    3558.2546     -2333.25    2247.3659    1959.7305    636.64663            0     4843.743   -4125.1291   -65.285852    36.312249    36.312249    36.312249            0            0            0   0.82474375 
  114000    47920.002    309.40286   -36260.114    3964.8437    2533.4215    6498.2653   -18842.626   -1767.8341    3558.4041   -2334.5204    2271.5648    1959.7305    636.64663            0     4867.942   -4125.0905   -65.232147    36.322211    36.322211    36.322211            0            0            0   0.82406531 
  115000    47959.444    309.40286   -36810.066    3964.8437    2556.6484    6521.4921   -19224.914   -1769.2786    3558.5276   -2335.8028     2296.074    1959.7305    636.64663            0    4892.4511   -4125.0518   -65.178501    36.332173    36.332173    36.332173            0            0            0   0.82338761 
  116000    47998.906    309.40286   -37359.167    3964.8437    2580.2258    6545.0695   -19606.901   -1770.6946     3558.663   -2337.0448    2320.8934    1959.7305    636.64663            0    4917.2706   -4125.0132   -65.124914    36.342136    36.342136    36.342136            0            0            0   0.82271065 
  117000    48038.391    309.40286   -37909.037    3964.8437    2603.8001    6568.6439   -19990.073   -1772.1011    3558.4757   -2338.6002    2346.0231    1959.7305    636.64663            0    4942.4003   -4124.9747   -65.071385    36.352098    36.352098    36.352098            0            0            0   0.82203443 
  118000    48077.897    309.40286   -38456.143    3964.8437      2628.13    6592.9737   -20371.198   -1773.4915    3558.7174   -2339.7102    2371.4631    1959.7305    636.64663            0    4967.8402   -4124.9361   -65.017916    36.362061    36.362061    36.362061            0            0            0   0.82135896 
  119000    48117.425    309.40286   -39002.709    3964.8437     2652.741    6617.5847   -20752.304   -1774.8645    3558.9127   -2340.8495    2397.2133    1959.7305    636.64663            0    4993.5904   -4124.8976   -64.964504    36.372023    36.372023    36.372023            0            0            0   0.82068423 
  120000    48156.974    309.40286   -39549.051    3964.8437    2677.5661    6642.4098   -21133.682   -1776.2173    3558.9917   -2342.0848    2423.2737    1959.7305    636.64663            0    5019.6509   -4124.8592   -64.911151    36.381986    36.381986    36.381986            0            0            0   0.82001023 
  121000    48196.545    309.40286   -40094.421    3964.8437    2702.7623     6667.606   -21514.649   -1777.5604    3559.1218   -2343.2593    2449.6444    1959.7305    636.64663            0    5046.0216   -4124.8208   -64.857857    36.391948    36.391948    36.391948            0            0            0   0.81933697 
  122000    48236.138    309.40286   -40638.433    3964.8437    2728.4155    6693.2593   -21894.846   -1778.8856    3559.3809   -2344.2871    2476.3254    1959.7305    636.64663            0    5072.7026   -4124.7824   -64.804621     36.40191     36.40191     36.40191            0            0            0   0.81866445 
  123000    48275.752    309.40286   -41183.563    3964.8437    2753.9961    6718.8398   -22276.544   -1780.1895    3559.2357   -2345.6977    2503.3167    1959.7305    636.64663            0    5099.6938    -4124.744   -64.751443    36.411873    36.411873    36.411873            0            0            0   0.81799267 
  124000    48315.389    309.40286   -41726.212    3964.8437    2780.2745    6745.1183   -22656.439    -1781.479     3559.464   -2346.7208    2530.6182    1959.7305    636.64663            0    5126.9953   -4124.7057   -64.698324    36.421835    36.421835    36.421835            0            0            0   0.81732162 
  125000    48355.046    309.40286   -42269.083    3964.8437    2806.6715    6771.5152   -23037.012   -1782.7511    3559.4829   -2347.9356    2558.2299    1959.7305    636.64663            0    5154.6071   -4124.6674   -64.645262    36.431798    36.431798    36.431798            0            0            0    0.8166513 
  126000    48394.726    309.40286   -42811.532    3964.8437    2833.3257    6798.1694   -23417.672   -1784.0054    3559.4311   -2349.2034    2586.1519    1959.7305    636.64663            0    5182.5291   -4124.6292   -64.592259     36.44176     36.44176     36.44176            0            0            0   0.81598172 
  127000    48434.427    309.40286    -43351.14    3964.8437    2860.7567    6825.6004    -23796.19   -1785.2472    3559.8335   -2350.0047    2614.3842    1959.7305    636.64663            0    5210.7613    -4124.591   -64.539313    36.451723    36.451723    36.451723            0            0            0   0.81531286 
  128000     48474.15    309.40286    -43890.95    3964.8437    2888.3108    6853.1546   -24175.366   -1786.4724    3560.0322    -2350.993    2642.9267    1959.7305    636.64663            0    5239.3039   -4124.5528   -64.486425    36.461685    36.461685    36.461685            0            0            0   0.81464474 
  129000    48513.895    309.40286   -44431.424    3964.8437      2915.89    6880.7338   -24555.627    -1787.675     3559.923   -2352.2666    2671.7795    1959.7305    636.64663            0    5268.1567   -4124.5147   -64.433595    36.471647    36.471647    36.471647            0            0            0   0.81397735 
  130000    48553.661    309.40286   -44970.005    3964.8437    2944.0433    6908.8871   -24934.614   -1788.8655    3560.0657   -2353.2764    2700.9425    1959.7305    636.64663            0    5297.3197   -4124.4766   -64.380823     36.48161     36.48161     36.48161            0            0            0   0.81331069 
  131000    48593.449    309.40286   -45509.471    3964.8437    2972.1722     6937.016   -25314.891   -1790.0391    3559.8568   -2354.6208    2730.4158    1959.7305    636.64663            0     5326.793   -4124.4385   -64.328108    36.491572    36.491572    36.491572            0            0            0   0.81264476 
  132000    48633.259    309.40286   -46046.605    3964.8437    3000.9706    6965.8144   -25693.486   -1791.2003    3559.9948   -2355.6059    2760.1994    1959.7305    636.64663            0    5356.5766   -4124.4005   -64.275451    36.501535    36.501535    36.501535            0            0            0   0.81197955 
  133000     48673.09    309.40286   -46582.683    3964.8437    3030.1639    6995.0077   -26071.575   -1792.3484    3560.2044   -2356.5064    2790.2932    1959.7305    636.64663            0    5386.6704   -4124.3625   -64.222851    36.511497    36.511497    36.511497            0            0            0   0.81131507 
  134000    48712.944    309.40286   -47118.299    3964.8437    3059.6222    7024.4659   -26449.708   -1793.4869    3560.3591   -2357.4523    2820.6973    1959.7305    636.64663            0    5417.0744   -4124.3245   -64.170309    36.521459    36.521459    36.521459            0            0            0   0.81065131 
  135000    48752.819    309.40286   -47652.934    3964.8437    3089.4607    7054.3044   -26827.401   -1794.6086    3560.5671   -2358.3281    2851.4116    1959.7305    636.64663            0    5447.7888   -4124.2866   -64.117824    36.531422    36.531422    36.531422            0            0            0   0.80998828 
  136000    48792.715    309.40286   -48187.031    3964.8437    3119.5846    7084.4283   -27205.063   -1795.7118    3560.7317   -2359.2288    2882.4362    1959.7305    636.64663            0    5478.8134   -4124.2487   -64.065396    36.541384    36.541384    36.541384            0            0            0   0.80932596 
  137000    48832.634    309.40286   -48720.737    3964.8437    3149.9598    7114.8035   -27582.832   -1796.8034    3560.8258   -2360.1884     2913.771    1959.7305    636.64663            0    5510.1482   -4124.2108   -64.013026    36.551347    36.551347    36.551347            0            0            0   0.80866438 
  138000    48872.574    309.40286   -49253.778    3964.8437     3180.649    7145.4928   -27960.451   -1797.8733     3560.902   -2361.1443    2945.4161    1959.7305    636.64663            0    5541.7933    -4124.173   -63.960712    36.561309    36.561309    36.561309            0            0            0   0.80800351 
  139000    48912.536    309.40286   -49784.869    3964.8437    3211.9307    7176.7744   -28336.723   -1798.9281    3561.2454    -2361.818    2977.3715    1959.7305    636.64663            0    5573.7487   -4124.1352   -63.908455    36.571272    36.571272    36.571272            0            0            0   0.80734336 
  140000     48952.52    309.40286    -50316.22    3964.8437    3243.3241    7208.1678   -28713.704   -1799.9665    3561.3737   -2362.6902    3009.6371    1959.7305    636.64663            0    5606.0143   -4124.0975   -63.856256    36.581234    36.581234    36.581234            0            0            0   0.80668393 
  141000    48992.526    309.40286   -50846.945    3964.8437     3275.022    7239.8658   -29090.568   -1800.9899    3561.4816   -2363.5681     3042.213    1959.7305    636.64663            0    5638.5901   -4124.0597   -63.804113    36.591196    36.591196    36.591196            0            0            0   0.80602522 
  142000    49032.553    309.40286   -51376.741    3964.8437     3307.091    7271.9348   -29467.033   -1801.9978    3561.6345   -2364.3853    3075.0991    1959.7305    636.64663            0    5671.4763   -4124.0221   -63.752027    36.601159    36.601159    36.601159            0            0            0   0.80536723 
  143000    49072.603    309.40286   -51905.449    3964.8437    3339.5653     7304.409   -29842.949   -1802.9915    3561.8686   -2365.1074    3108.2955    1959.7305    636.64663            0    5704.6727   -4123.9844   -63.699997    36.611121    36.611121    36.611121            0            0            0   0.80470995 
  144000    49112.674    309.40286   -52434.498    3964.8437    3372.1342    7336.9779   -30219.649   -1803.9693     3561.871   -2366.0451    3141.8022    1959.7305    636.64663            0    5738.1793   -4123.9468   -63.648024    36.621084    36.621084    36.621084            0            0            0   0.80405339 
  145000    49152.766    309.40286   -52962.986    3964.8437    3404.9941    7369.8379   -30596.291   -1804.9322    3561.8393   -2367.0021    3175.6191    1959.7305    636.64663            0    5771.9962   -4123.9092   -63.596108    36.631046    36.631046    36.631046            0            0            0   0.80339754 
  146000    49192.881    309.40286   -53489.956    3964.8437    3438.3533     7403.197    -30971.98    -1805.884    3561.9856   -2367.7701    3209.7462    1959.7305    636.64663            0    5806.1234   -4123.8717   -63.544248    36.641009    36.641009    36.641009            0            0            0    0.8027424 
  147000    49233.018    309.40286    -54015.92    3964.8437    3472.1028    7436.9465    -31347.19   -1806.8188    3562.1949    -2368.458    3244.1836    1959.7305    636.64663            0    5840.5608   -4123.8342   -63.492445    36.650971    36.650971    36.650971            0            0            0   0.80208798 
  148000    49273.176    309.40286   -54541.923    3964.8437    3506.0136    7470.8574   -31722.899   -1807.7375    3562.2394   -2369.2949    3278.9313    1959.7305    636.64663            0    5875.3085   -4123.7967   -63.440698    36.660933    36.660933    36.660933            0            0            0   0.80143427 
  149000    49313.356    309.40286   -55065.946    3964.8437    3540.5266    7505.3704   -32097.216   -1808.6435     3562.563   -2369.8398    3313.9893    1959.7305    636.64663            0    5910.3664   -4123.7593   -63.389007    36.670896    36.670896    36.670896            0            0            0   0.80078126 
  150000    49353.558    309.40286   -55590.424    3964.8437    3575.1079    7539.9517   -32472.424   -1809.5393    3562.6345   -2370.6267    3349.3575    1959.7305    636.64663            0    5945.7346   -4123.7219   -63.337372    36.680858    36.680858    36.680858            0            0            0   0.80012897 
  150486    49373.104    309.40286   -55845.572    3964.8437    3591.9204    7556.7641   -32655.179    -1809.969    3562.5575   -2371.1152    3366.6584    1959.7305    636.64663            0    5963.0356   -4123.7037   -63.312298      36.6857      36.6857      36.6857            0            0            0   0.79981221 
Loop time of 255.463 on 48 procs for 100000 steps with 4300 atoms

Performance: 33.821 ns/day, 0.710 hours/ns, 391.447 timesteps/s
59.3% CPU use with 48 MPI tasks x 1 OpenMP threads

MPI task timing breakdown:
Section |  min time  |  avg time  |  max time  |%varavg| %total
---------------------------------------------------------------
Pair    | 64.221     | 93.706     | 113.06     | 116.7 | 36.68
Bond    | 3.5012     | 6.2436     | 8.6997     |  44.8 |  2.44
Kspace  | 34.919     | 54.125     | 85.066     | 165.0 | 21.19
Neigh   | 0.025023   | 0.026843   | 0.028478   |   0.7 |  0.01
Comm    | 72.06      | 82.613     | 99.401     |  78.7 | 32.34
Output  | 0.11211    | 0.1229     | 0.13966    |   1.3 |  0.05
Modify  | 0.51246    | 0.62946    | 0.95197    |  15.9 |  0.25
Other   |            | 18         |            |       |  7.04

Nlocal:    89.5833 ave 108 max 65 min
Histogram: 2 0 4 5 4 9 11 6 4 3
Nghost:    4039.75 ave 4106 max 3985 min
Histogram: 2 1 17 4 6 4 6 4 2 2
Neighs:    35921.1 ave 43459 max 25244 min
Histogram: 3 1 1 4 4 9 12 7 3 4

Total # of neighbors = 1724212
Ave neighs/atom = 400.98
Ave special neighs/atom = 10.0698
Neighbor list builds = 13
Dangerous builds = 0
# >>>>>>>>>  Equilibration run <<<<<<<<<<<<<<<<<<<<<<<<<<<<<<<<<<

fix             NVT_equib all nvt temp ${simulationTemp} ${simulationTemp} 100
fix             NVT_equib all nvt temp 310 ${simulationTemp} 100
fix             NVT_equib all nvt temp 310 310 100

print           "Step Density Temperature Pressure KinEng PotEng TotEng" file Properties_equib_DCM25p.txt
Step Density Temperature Pressure KinEng PotEng TotEng
fix             PRINT_equib all print ${printfreq} "$(v_step) $(v_density) $(v_temp) $(v_press) $(v_pe) $(v_ke) $(v_etotal) $(v_enthalpy)" append Properties_equib_DCM25p.txt title ""
fix             PRINT_equib all print 1000 "$(v_step) $(v_density) $(v_temp) $(v_press) $(v_pe) $(v_ke) $(v_etotal) $(v_enthalpy)" append Properties_equib_DCM25p.txt title ""
# The 'print' and fix print' commands as used above will create a file named 'Properties_equib.txt' which allows you to quickly make plots to test for equilibration


run             ${NVT_equib}
run             100000
Ewald initialization ...
  using 12-bit tables for long-range coulomb (src/kspace.cpp:332)
  G vector (1/distance) = 0.165674
  estimated absolute RMS force accuracy = 0.0407329
  estimated relative force accuracy = 0.000122666
  KSpace vectors: actual max1d max3d = 128 4 364
                  kxmax kymax kzmax  = 4 4 4
Per MPI rank memory allocation (min/avg/max) = 22.52 | 22.71 | 23.05 Mbytes
Step Volume Temp Press KinEng PotEng TotEng Enthalpy E_vdwl E_coul E_pair E_bond E_angle E_dihed E_impro E_mol E_long E_tail Lx Ly Lz Xy Xz Yz Density 
  150486    49373.104    309.40286   -55845.628    3964.8437    3592.0119    7556.8557   -32655.128     -1809.97    3541.9545   -2371.0593    3366.6941    1959.7305    636.64663            0    5963.0713   -4103.0438   -63.312298      36.6857      36.6857      36.6857            0            0            0   0.79981221 
151000 0.79981221236869304292 298.77322511148400963 -8182.7408193202400071 1989.365145784860033 3828.6302117257801001 5817.9953575106401331 -74.036898274006503584
  151000    49373.104    298.77323   -8182.7408    3828.6302    1989.3651    5817.9954   -74.036898   -1453.2353    3479.8474   -2077.4251     1519.666    1968.9125    578.21182            0    4066.7903   -4104.0372   -63.312298      36.6857      36.6857      36.6857            0            0            0   0.79981221 
152000 0.79981221236869404212 312.16957881769297956 -1085.6803759379999974 1988.8104481870700511 4000.2978185115598535 5989.1082666986403638 5207.3575140173898035
  152000    49373.104    312.16958   -1085.6804    4000.2978    1988.8104    5989.1083    5207.3575   -1479.0462    3536.9635   -2046.9641    1394.7755    2040.9866    600.01243            0    4035.7745   -4104.8815   -63.312298      36.6857      36.6857      36.6857            0            0            0   0.79981221 
153000 0.79981221236869304292 307.63439956844098333 -581.45813762224895527 1856.7255846133600699 3942.1817531151400544 5798.9073377285003517 5380.2248720478401083
  153000    49373.104     307.6344   -581.45814    3942.1818    1856.7256    5798.9073    5380.2249   -1489.9222    3539.1742   -2054.9356    1355.6811    1953.9523    602.02779            0    3911.6612   -4104.1876   -63.312298      36.6857      36.6857      36.6857            0            0            0   0.79981221 
154000 0.79981221236869304292 310.31664838173901444 -1913.320649412270086 1963.8223699168599978 3976.5534369838201201 5940.375806900689895 4562.6776454999899215
  154000    49373.104    310.31665   -1913.3206    3976.5534    1963.8224    5940.3758    4562.6776   -1488.5608    3551.1216   -2043.5153    1422.0094    2015.3245    570.00377            0    4007.3377   -4106.0761   -63.312298      36.6857      36.6857      36.6857            0            0            0   0.79981221 
155000 0.79981221236869404212 303.66997331164799334 901.41406795910199889 1858.3175787394700365 3891.3796033132098273 5749.6971820526796364 6398.765859835179981
  155000    49373.104    303.66997    901.41407    3891.3796    1858.3176    5749.6972    6398.7659   -1469.6332    3506.3081   -2067.5412    1420.3944    1939.0994    566.36496            0    3925.8588   -4104.2161   -63.312298      36.6857      36.6857      36.6857            0            0            0   0.79981221 
156000 0.79981221236869304292 315.42919938305499272 -1979.6038507690700499 1914.6805730893299824 4042.0682340856101291 5956.7488071749403389 4531.3230238154901599
  156000    49373.104     315.4292   -1979.6039    4042.0682    1914.6806    5956.7488     4531.323    -1424.825    3485.8808    -2044.197    1414.1221    1949.9221    594.83343            0    3958.8776   -4105.2528   -63.312298      36.6857      36.6857      36.6857            0            0            0   0.79981221 
157000 0.79981221236869304292 307.83730507355397776 1057.7907690474401079 1880.884125198610036 3944.7818861983801071 5825.6660113970001476 6587.3346831436501816
  157000    49373.104    307.83731    1057.7908    3944.7819    1880.8841     5825.666    6587.3347   -1449.5975    3518.3896   -2034.8219     1354.993    1979.2056    581.50737            0     3915.706    -4103.614   -63.312298      36.6857      36.6857      36.6857            0            0            0   0.79981221 
158000 0.79981221236869304292 313.72411766846602177 -787.94269888039502803 1966.4882749568801046 4020.2184603533701193 5986.7067353102602283 5419.3438064305200896
  158000    49373.104    313.72412    -787.9427    4020.2185    1966.4883    5986.7067    5419.3438   -1486.0386    3539.8955   -2051.5988    1371.0256    2028.8951    618.16631            0     4018.087   -4105.4557   -63.312298      36.6857      36.6857      36.6857            0            0            0   0.79981221 
159000 0.79981221236869304292 303.69514520939202384 -891.00399268296598621 1933.6639911436200236 3891.7021686573898478 5825.3661598010203306 5183.793319986069946
  159000    49373.104    303.69515   -891.00399    3891.7022     1933.664    5825.3662    5183.7933   -1444.7781    3505.4739   -2043.5732    1395.0769    1989.4919    592.66847            0    3977.2372    -4104.269   -63.312298      36.6857      36.6857      36.6857            0            0            0   0.79981221 
160000 0.79981221236869304292 309.2752321913080209 -267.9685956094160133 1833.6049609879100899 3963.2082067069900404 5796.8131676948996756 5603.8607519053102806
  160000    49373.104    309.27523    -267.9686    3963.2082     1833.605    5796.8132    5603.8608   -1475.0195    3542.7794   -2038.4259    1326.8174      1972.73    572.48349            0    3872.0309   -4106.1858   -63.312298      36.6857      36.6857      36.6857            0            0            0   0.79981221 
161000 0.79981221236869304292 317.7629538106569953 -247.57130920360398818 1929.2234338060100072 4071.9741358106798543 6001.1975696166800844 5822.9323438636802166
  161000    49373.104    317.76295   -247.57131    4071.9741    1929.2234    6001.1976    5822.9323   -1429.0837    3534.4055   -1998.8611    1343.3306     1988.202    596.55196            0    3928.0846   -4104.1829   -63.312298      36.6857      36.6857      36.6857            0            0            0   0.79981221 
162000 0.79981221236869404212 309.50832761077401756 -1141.6181192039200596 1897.4483976219501074 3966.1952085203201932 5863.6436061422700732 5041.614541472899873
  162000    49373.104    309.50833   -1141.6181    3966.1952    1897.4484    5863.6436    5041.6145   -1454.4881    3516.3204   -2043.2371    1376.6791    2022.5087    541.49767            0    3940.6855   -4105.0694   -63.312298      36.6857      36.6857      36.6857            0            0            0   0.79981221 
163000 0.79981221236869304292 303.43813624480702629 -477.01682005444598644 1830.7099532786000964 3888.4087266626302153 5719.1186799412298569 5375.6398196947302495
  163000    49373.104    303.43814   -477.01682    3888.4087      1830.71    5719.1187    5375.6398   -1485.5361    3555.5382    -2034.282    1326.2724    1934.9772    603.74243            0     3864.992   -4104.2841   -63.312298      36.6857      36.6857      36.6857            0            0            0   0.79981221 
164000 0.79981221236869304292 313.9693599540630089 -679.97862511281198294 1824.9600882716699743 4023.3611182119598197 5848.3212064836197897 5358.6984650484901067
  164000    49373.104    313.96936   -679.97863    4023.3611    1824.9601    5848.3212    5358.6985   -1442.1532    3499.6715   -2046.7378    1359.4286    1929.7696     582.4997            0    3871.6979   -4104.2561   -63.312298      36.6857      36.6857      36.6857            0            0            0   0.79981221 
165000 0.79981221236869304292 310.33815485287897218 -781.54249877917504818 1860.6027423620901118 3976.8290317099599633 5837.4317740720498477 5274.6773481710297347
  165000    49373.104    310.33815    -781.5425     3976.829    1860.6027    5837.4318    5274.6773   -1450.2843    3511.7305   -2042.1619    1365.7065    1954.8981    582.15996            0    3902.7646   -4103.6081   -63.312298      36.6857      36.6857      36.6857            0            0            0   0.79981221 
166000 0.79981221236869304292 301.19706579863799334 -998.82431836374598788 1967.4396927217999291 3859.6905240405299082 5827.1302167623198329 5107.9206961862801109
  166000    49373.104    301.19707   -998.82432    3859.6905    1967.4397    5827.1302    5107.9207   -1448.0169    3543.6088   -2006.2574    1331.5442     2020.687    621.46599            0    3973.6971   -4101.8492   -63.312298      36.6857      36.6857      36.6857            0            0            0   0.79981221 
167000 0.79981221236869304292 314.33278929581001648 -996.0510758620530396 1933.1529383110801064 4028.0182843857901389 5961.1712226968702453 5243.9585922379501426
  167000    49373.104    314.33279   -996.05108    4028.0183    1933.1529    5961.1712    5243.9586   -1459.5064    3541.4609   -2020.5262    1386.8688    1985.3099    581.50042            0    3953.6791   -4102.4806   -63.312298      36.6857      36.6857      36.6857            0            0            0   0.79981221 
168000 0.79981221236869304292 311.92034976016299197 -645.92132720503695964 1941.2727480374398965 3997.1040721544600274 5938.3768201919001513 5473.2772430910999901
  168000    49373.104    311.92035   -645.92133    3997.1041    1941.2727    5938.3768    5473.2772   -1461.7885    3517.7673   -2047.3432    1354.4963    2022.8521    611.26749            0    3988.6159    -4103.322   -63.312298      36.6857      36.6857      36.6857            0            0            0   0.79981221 
169000 0.79981221236869304292 305.28228112651902393 -714.84421954140498201 1927.8616229453200503 3912.0405256844001087 5839.9021486297197043 5325.1742240381800002
  169000    49373.104    305.28228   -714.84422    3912.0405    1927.8616    5839.9021    5325.1742   -1486.1702    3542.0058   -2047.1042    1351.5363    2003.7144    619.71513            0    3974.9658   -4102.9399   -63.312298      36.6857      36.6857      36.6857            0            0            0   0.79981221 
170000 0.79981221236869404212 311.07293180573299196 -1396.7657848455899057 2011.1949398942799689 3986.2448327394099579 5997.4397726336901542 4991.690080714420219
  170000    49373.104    311.07293   -1396.7658    3986.2448    2011.1949    5997.4398    4991.6901   -1468.9398    3593.4883   -1980.6202    1401.4876     1994.147    596.18059            0    3991.8152   -4105.1687   -63.312298      36.6857      36.6857      36.6857            0            0            0   0.79981221 
171000 0.79981221236869304292 315.72430943395602299 -516.06363473578994672 1863.0100251951400878 4045.8499225426098747 5908.8599477377501898 5537.2651912813998933
  171000    49373.104    315.72431   -516.06363    4045.8499      1863.01    5908.8599    5537.2652   -1447.5695    3540.1279   -2012.9816    1349.8519    1949.4495    576.69029            0    3875.9916   -4105.5401   -63.312298      36.6857      36.6857      36.6857            0            0            0   0.79981221 
172000 0.79981221236869404212 308.42090536577700277 -304.71510395316698805 1896.3545878468501087 3952.2604335465998702 5848.6150213934497515 5629.2030589519999921
  172000    49373.104    308.42091    -304.7151    3952.2604    1896.3546     5848.615    5629.2031   -1480.4566    3558.4371   -2024.9464     1350.401    1984.8571    586.04293            0     3921.301   -4102.9269   -63.312298      36.6857      36.6857      36.6857            0            0            0   0.79981221 
173000 0.79981221236869304292 307.48918556609800135 -301.84867945382501375 1760.235172396560074 3940.3209079328798907 5700.5560803294401921 5483.2081042688096204
  173000    49373.104    307.48919   -301.84868    3940.3209    1760.2352    5700.5561    5483.2081   -1459.1414    3491.3884    -2071.369    1339.7248    1912.8568    579.02259            0    3831.6042   -4103.6161   -63.312298      36.6857      36.6857      36.6857            0            0            0   0.79981221 
174000 0.79981221236869304292 307.1990314676700109 -1434.920829985049977 1911.5609867275600209 3936.6027275407700472 5848.1637142683302955 4814.940250217369794
  174000    49373.104    307.19903   -1434.9208    3936.6027     1911.561    5848.1637    4814.9403   -1476.5028    3518.7212   -2061.5158    1360.3539    2002.1123    610.61061            0    3973.0768   -4103.7342   -63.312298      36.6857      36.6857      36.6857            0            0            0   0.79981221 
175000 0.79981221236869304292 309.93692098430898341 -1051.1714453860399772 1953.0892122822399415 3971.6874193362300502 5924.7766316184697644 5167.8742441017102465
  175000    49373.104    309.93692   -1051.1714    3971.6874    1953.0892    5924.7766    5167.8742   -1460.9546    3535.3771   -2029.9684    1369.5393    2023.7279    589.79034            0    3983.0576   -4104.3909   -63.312298      36.6857      36.6857      36.6857            0            0            0   0.79981221 
176000 0.79981221236869304292 306.43204927290400974 -543.3863451063670027 1838.155926199580108 3926.7742323613802 5764.9301585609600806 5373.6615184544298245
  176000    49373.104    306.43205   -543.38635    3926.7742    1838.1559    5764.9302    5373.6615   -1465.4404    3571.8495   -2000.0884    1338.6921    1922.0819    577.47034            0    3838.2443   -4106.4976   -63.312298      36.6857      36.6857      36.6857            0            0            0   0.79981221 
177000 0.79981221236869304292 324.49728329328598875 -4.019140160400270112 1973.0658637455001099 4158.2712171615603438 6131.3370809070602263 6128.4430746091102264
  177000    49373.104    324.49728   -4.0191402    4158.2712    1973.0659    6131.3371    6128.4431   -1500.8138    3577.2579   -2026.2977    1393.3897    2048.4616    557.51222            0    3999.3635   -4102.7418   -63.312298      36.6857      36.6857      36.6857            0            0            0   0.79981221 
178000 0.79981221236869304292 307.63763559840799644 1275.5873266904900447 1901.2979260061799778 3942.2232212289300151 5843.5211472351202247 6762.0155539240004146
  178000    49373.104    307.63764    1275.5873    3942.2232    1901.2979    5843.5211    6762.0156   -1445.2727    3556.9836   -1992.5481     1334.543    1977.5107    581.79236            0    3893.8461    -4104.259   -63.312298      36.6857      36.6857      36.6857            0            0            0   0.79981221 
179000 0.79981221236869304292 315.6485154388209935 463.72575883177302103 1922.8212921409899536 4044.8786602096702154 5967.6999523506701735 6301.6085031902402989
  179000    49373.104    315.64852    463.72576    4044.8787    1922.8213       5967.7    6301.6085   -1483.0126    3574.5405   -2013.3348    1344.3699    2003.8038    587.98245            0    3936.1561   -4104.8627   -63.312298      36.6857      36.6857      36.6857            0            0            0   0.79981221 
180000 0.79981221236869304292 309.76715139328297255 -1764.2255168719500489 1870.5633560153100916 3969.511906503730188 5840.0752625190398248 4569.733957397350423
  180000    49373.104    309.76715   -1764.2255    3969.5119    1870.5634    5840.0753     4569.734   -1492.0316    3564.5796   -2030.4047    1361.7743    1957.7935    581.40033            0    3900.9681   -4102.9527   -63.312298      36.6857      36.6857      36.6857            0            0            0   0.79981221 
181000 0.79981221236869304292 307.67712024394802484 -1727.9719472725801097 1839.2794369004900545 3942.729197314170051 5782.0086342146596508 4537.7719322062002902
  181000    49373.104    307.67712   -1727.9719    3942.7292    1839.2794    5782.0086    4537.7719   -1467.9554    3535.1062   -2036.6465    1335.4483    1956.8701    583.60753            0     3875.926   -4103.7973   -63.312298      36.6857      36.6857      36.6857            0            0            0   0.79981221 
182000 0.79981221236869304292 316.40982372565702008 -1279.8520632501699765 1959.6024231586100086 4054.6344470822400581 6014.2368702408502941 5092.6716140741500567
  182000    49373.104    316.40982   -1279.8521    4054.6344    1959.6024    6014.2369    5092.6716   -1475.1542    3525.8762   -2052.8216    1397.9465    2001.4352    613.04234            0     4012.424   -4103.5436   -63.312298      36.6857      36.6857      36.6857            0            0            0   0.79981221 
183000 0.79981221236869304292 309.0394439722940092 -874.16096552222097671 1967.989468798559983 3960.1866980073700688 5928.1761668059298245 5298.7312510579304217
  183000    49373.104    309.03944   -874.16097    3960.1867    1967.9895    5928.1762    5298.7313   -1453.0595    3508.9951   -2049.1547    1378.6357    2033.9934    604.51509            0    4017.1442   -4105.0903   -63.312298      36.6857      36.6857      36.6857            0            0            0   0.79981221 
184000 0.79981221236869304292 309.32653507481398947 260.27695536212098659 1861.9952288498200232 3963.8656276310598514 5825.860856480880102 6013.2748599661399567
  184000    49373.104    309.32654    260.27696    3963.8656    1861.9952    5825.8609    6013.2749   -1442.9382    3538.5604   -2007.6465    1346.8055    1912.5295    610.30679            0    3869.6417   -4103.2688   -63.312298      36.6857      36.6857      36.6857            0            0            0   0.79981221 
185000 0.79981221236869304292 311.86699348900498308 -118.65133977943500554 1938.906485077159914 3996.4203380893800386 5935.3268231665397252 5849.8912048805696031
  185000    49373.104    311.86699   -118.65134    3996.4203    1938.9065    5935.3268    5849.8912   -1467.4744    3575.5687   -1996.5168    1333.8647    1993.7609     607.7976            0    3935.4233   -4104.6111   -63.312298      36.6857      36.6857      36.6857            0            0            0   0.79981221 
186000 0.79981221236869304292 303.05350211397200155 -268.49943587386201216 1908.1745424700000058 3883.4798316680198695 5791.6543741380201027 5598.3197235899397128
  186000    49373.104     303.0535   -268.49944    3883.4798    1908.1745    5791.6544    5598.3197   -1453.4701    3527.2101   -2028.9353    1375.4857    1954.2941    607.33012            0    3937.1098   -4102.6753   -63.312298      36.6857      36.6857      36.6857            0            0            0   0.79981221 
187000 0.79981221236869304292 307.96616228026698536 -321.11188073638697915 1873.5947262870199665 3946.4331271836999804 5820.0278534707204017 5588.8092922586602072
  187000    49373.104    307.96616   -321.11188    3946.4331    1873.5947    5820.0279    5588.8093   -1457.5156    3541.0975   -2023.1047    1336.0614     1950.616    610.02197            0    3896.6994   -4106.6866   -63.312298      36.6857      36.6857      36.6857            0            0            0   0.79981221 
188000 0.79981221236869304292 313.53833232259700026 -1422.0601170180300414 1866.0797133718399436 4017.837713591929969 5883.9174269637696852 4859.9543974429197988
[...]
253000 0.79981221236869304292 312.11640724803601188 -1477.9420049197499338 1898.8597119545900114 3999.6164513043199804 5898.4761632589097644 4834.2750407443600125
  253000    49373.104    312.11641    -1477.942    3999.6165    1898.8597    5898.4762     4834.275   -1447.5416    3517.0637   -2036.7696    1367.7004    1971.4479    596.48107            0    3935.6293   -4106.2917   -63.312298      36.6857      36.6857      36.6857            0            0            0   0.79981221 
254000 0.79981221236869304292 304.31808062489699296 -2790.2705972841099538 1937.8269578699901103 3899.6847760375098915 5837.5117339074995471 3828.3604330685197965
254000 0.79981221236869304292 304.31808062489699296 -2790.2705972841099538 1937.8269578699901103 3899.6847760375098915 5837.5117339074995471 3828.3604330685197965
  254000    49373.104    304.31808   -2790.2706    3899.6848     1937.827    5837.5117    3828.3604   -1460.0022    3492.0351   -2074.1952    1389.2181      2033.94    588.86404            0    4012.0222   -4106.2282   -63.312298      36.6857      36.6857      36.6857            0            0            0   0.79981221 
255000 0.79981221236869304292 310.05401197689099035 29.757978958428100924 1866.179283489359932 3973.1878821422701549 5839.3671656316300869 5860.7945792283098854
255000 0.79981221236869304292 310.05401197689099035 29.757978958428100924 1866.179283489359932 3973.1878821422701549 5839.3671656316300869 5860.7945792283098854
  255000    49373.104    310.05401    29.757979    3973.1879    1866.1793    5839.3672    5860.7946   -1456.7102    3553.0626    -2007.739    1315.6325    1963.6023    594.68346            0    3873.9182   -4104.0914   -63.312298      36.6857      36.6857      36.6857            0            0            0   0.79981221 
256000 0.79981221236869304292 312.13487858843802769 -1153.1987179524699059 1890.1311431615999936 3999.8531523403098618 5889.9842955019203146 5059.6165503250704205
256000 0.79981221236869304292 312.13487858843802769 -1153.1987179524699059 1890.1311431615999936 3999.8531523403098618 5889.9842955019203146 5059.6165503250704205
  256000    49373.104    312.13488   -1153.1987    3999.8532    1890.1311    5889.9843    5059.6166   -1454.9046    3529.9888   -2029.7713    1337.8142    1985.3826    596.70569            0    3919.9025   -4104.8555   -63.312298      36.6857      36.6857      36.6857            0            0            0   0.79981221 
257000 0.79981221236869304292 311.07940607098697683 236.63027255919800496 1848.7075899949700215 3986.3277972270798273 5835.0353872220503035 6005.4224530474803032
257000 0.79981221236869304292 311.07940607098697683 236.63027255919800496 1848.7075899949700215 3986.3277972270798273 5835.0353872220503035 6005.4224530474803032
  257000    49373.104    311.07941    236.63027    3986.3278    1848.7076    5835.0354    6005.4225   -1435.2244    3521.9465   -2019.7011    1333.8806    1943.8276    590.70048            0    3868.4087   -4106.4231   -63.312298      36.6857      36.6857      36.6857            0            0            0   0.79981221 
258000 0.79981221236869404212 305.09378649687300822 -821.90979957377601295 1808.498353759380052 3909.6250607994797974 5718.123414558859622 5126.3022683971703373
258000 0.79981221236869404212 305.09378649687300822 -821.90979957377601295 1808.498353759380052 3909.6250607994797974 5718.123414558859622 5126.3022683971703373
  258000    49373.104    305.09379    -821.9098    3909.6251    1808.4984    5718.1234    5126.3023   -1468.7735    3517.0556   -2055.9116    1317.2571    1956.2771    590.87578            0      3864.41   -4104.1938   -63.312298      36.6857      36.6857      36.6857            0            0            0   0.79981221 
259000 0.79981221236869304292 310.30628842332697559 306.11891337686398629 1817.7429243512199264 3976.420679271840072 5794.1636036230602258 6014.5863875713903326
259000 0.79981221236869304292 310.30628842332697559 306.11891337686398629 1817.7429243512199264 3976.420679271840072 5794.1636036230602258 6014.5863875713903326
  259000    49373.104    310.30629    306.11891    3976.4207    1817.7429    5794.1636    6014.5864    -1485.397    3558.3062   -2031.6854    1336.7868    1936.9132    575.72835            0    3849.4283   -4104.5945   -63.312298      36.6857      36.6857      36.6857            0            0            0   0.79981221 
260000 0.79981221236869304292 306.96869104333899259 -1380.5381486415599284 1845.4876050779998877 3933.6510296192300302 5779.1386346972203683 4785.0737508465999781
260000 0.79981221236869304292 306.96869104333899259 -1380.5381486415599284 1845.4876050779998877 3933.6510296192300302 5779.1386346972203683 4785.0737508465999781
  260000    49373.104    306.96869   -1380.5381     3933.651    1845.4876    5779.1386    4785.0738     -1495.78    3515.4421   -2085.8469    1381.0366    1974.6462    575.65167            0    3931.3345   -4105.5089   -63.312298      36.6857      36.6857      36.6857            0            0            0   0.79981221 
261000 0.79981221236869304292 309.47396738808998862 -1374.1086507293100567 1918.1636587645300551 3965.754899364099856 5883.9185581286301385 4894.4832733235998603
261000 0.79981221236869304292 309.47396738808998862 -1374.1086507293100567 1918.1636587645300551 3965.754899364099856 5883.9185581286301385 4894.4832733235998603
  261000    49373.104    309.47397   -1374.1087    3965.7549    1918.1637    5883.9186    4894.4833   -1447.3871    3481.9196   -2069.0385    1368.2881    2017.7247    601.18941            0    3987.2022   -4103.5709   -63.312298      36.6857      36.6857      36.6857            0            0            0   0.79981221 
262000 0.79981221236869304292 305.71181239402102392 -1125.8510229391999928 1826.1425550547398871 3917.5447551448100967 5743.6873101995497564 4933.0114390167000238
262000 0.79981221236869304292 305.71181239402102392 -1125.8510229391999928 1826.1425550547398871 3917.5447551448100967 5743.6873101995497564 4933.0114390167000238
  262000    49373.104    305.71181    -1125.851    3917.5448    1826.1426    5743.6873    4933.0114   -1470.4478    3521.5718   -2052.5526     1370.485    1931.6907    576.51945            0    3878.6952   -4103.6766   -63.312298      36.6857      36.6857      36.6857            0            0            0   0.79981221 
263000 0.79981221236869304292 305.14698360056098636 -630.14685109603101409 1953.6657139266599188 3910.3067552126199189 5863.9724691392802924 5410.2313994267296948
263000 0.79981221236869304292 305.14698360056098636 -630.14685109603101409 1953.6657139266599188 3910.3067552126199189 5863.9724691392802924 5410.2313994267296948
  263000    49373.104    305.14698   -630.14685    3910.3068    1953.6657    5863.9725    5410.2314   -1436.1501    3516.6502   -2024.8824    1345.7015     2041.495    591.35156            0    3978.5481   -4105.3825   -63.312298      36.6857      36.6857      36.6857            0            0            0   0.79981221 
264000 0.79981221236869304292 310.78554657680700757 -750.47745365168896114 1855.786606654120078 3982.5621340321899879 5838.3487406863096112 5297.9628893204098858
264000 0.79981221236869304292 310.78554657680700757 -750.47745365168896114 1855.786606654120078 3982.5621340321899879 5838.3487406863096112 5297.9628893204098858
  264000    49373.104    310.78555   -750.47745    3982.5621    1855.7866    5838.3487    5297.9629   -1485.4048    3533.7598   -2056.9269    1313.6379     2009.892    589.18365            0    3912.7135    -4105.282   -63.312298      36.6857      36.6857      36.6857            0            0            0   0.79981221 
265000 0.79981221236869304292 314.36526601387600977 -604.9329766758879714 1931.1320821202400566 4028.434457367559844 5959.5665394877996732 5523.9808732833198519
265000 0.79981221236869304292 314.36526601387600977 -604.9329766758879714 1931.1320821202400566 4028.434457367559844 5959.5665394877996732 5523.9808732833198519
  265000    49373.104    314.36527   -604.93298    4028.4345    1931.1321    5959.5665    5523.9809   -1469.0262    3552.5417    -2021.877     1388.675    1987.9131    576.42097            0    3953.0091   -4105.3925   -63.312298      36.6857      36.6857      36.6857            0            0            0   0.79981221 
266000 0.79981221236869404212 316.8657944128610211 -1692.2545907301700936 1807.3463518979799574 4060.4774845499900948 5867.8238364479702796 4649.3056340823595747
266000 0.79981221236869404212 316.8657944128610211 -1692.2545907301700936 1807.3463518979799574 4060.4774845499900948 5867.8238364479702796 4649.3056340823595747
  266000    49373.104    316.86579   -1692.2546    4060.4775    1807.3464    5867.8238    4649.3056   -1537.2978     3576.347   -2063.6059    1376.0809    1931.0241    563.84725            0    3870.9523   -4102.6551   -63.312298      36.6857      36.6857      36.6857            0            0            0   0.79981221 
267000 0.79981221236869304292 306.82148775203700097 -1045.6543296460299644 1909.7315923558001032 3931.7646926888101007 5841.4962850446199809 5088.5665302455299752
267000 0.79981221236869304292 306.82148775203700097 -1045.6543296460299644 1909.7315923558001032 3931.7646926888101007 5841.4962850446199809 5088.5665302455299752
  267000    49373.104    306.82149   -1045.6543    3931.7647    1909.7316    5841.4963    5088.5665   -1433.4944    3512.3656   -2026.0978    1400.6696    1974.6995    560.46024            0    3935.8293   -4104.9689   -63.312298      36.6857      36.6857      36.6857            0            0            0   0.79981221 
268000 0.79981221236869304292 308.17413086804299382 -1148.2372748428799696 1887.4356542291200185 3949.098141151910113 5836.5337953810203544 5009.7385674673396352
268000 0.79981221236869304292 308.17413086804299382 -1148.2372748428799696 1887.4356542291200185 3949.098141151910113 5836.5337953810203544 5009.7385674673396352
  268000    49373.104    308.17413   -1148.2373    3949.0981    1887.4357    5836.5338    5009.7386    -1493.725    3536.5832   -2062.0882     1381.165     1970.157    598.20179            0    3949.5239   -4104.9463   -63.312298      36.6857      36.6857      36.6857            0            0            0   0.79981221 
269000 0.79981221236869404212 305.04895501465199459 -978.82353299592205076 1779.8909918775400456 3909.0505676627399225 5688.9415595402697363 4984.1337260187701759
269000 0.79981221236869404212 305.04895501465199459 -978.82353299592205076 1779.8909918775400456 3909.0505676627399225 5688.9415595402697363 4984.1337260187701759
  269000    49373.104    305.04896   -978.82353    3909.0506     1779.891    5688.9416    4984.1337   -1472.6873    3499.7872   -2077.7469    1306.1573    1969.0644    582.41613            0    3857.6379   -4104.8468   -63.312298      36.6857      36.6857      36.6857            0            0            0   0.79981221 
270000 0.79981221236869304292 307.06466437563102545 1075.712053396599913 1899.0343693231200177 3934.8808801166901503 5833.915249439800391 6608.4882508947903261
270000 0.79981221236869304292 307.06466437563102545 1075.712053396599913 1899.0343693231200177 3934.8808801166901503 5833.915249439800391 6608.4882508947903261
  270000    49373.104    307.06466    1075.7121    3934.8809    1899.0344    5833.9152    6608.4883   -1449.6048    3525.5403   -2028.0728    1344.2249    2001.1548    581.72747            0    3927.1072   -4104.0083   -63.312298      36.6857      36.6857      36.6857            0            0            0   0.79981221 
271000 0.79981221236869304292 304.91829020314099807 229.11626715024098644 1924.3773172662699835 3907.3761631213901637 5831.7534803876596925 5996.7300409536301231
271000 0.79981221236869304292 304.91829020314099807 229.11626715024098644 1924.3773172662699835 3907.3761631213901637 5831.7534803876596925 5996.7300409536301231
  271000    49373.104    304.91829    229.11627    3907.3762    1924.3773    5831.7535      5996.73   -1456.7679    3502.6099   -2058.2183    1370.3323    2017.6185    594.64488            0    3982.5957   -4104.0603   -63.312298      36.6857      36.6857      36.6857            0            0            0   0.79981221 
272000 0.79981221236869304292 311.58582605860601689 -631.00169955383000797 1928.8652271860401015 3992.8173173763398154 5921.6825445623799169 5467.3259360226302306
272000 0.79981221236869304292 311.58582605860601689 -631.00169955383000797 1928.8652271860401015 3992.8173173763398154 5921.6825445623799169 5467.3259360226302306
  272000    49373.104    311.58583    -631.0017    3992.8173    1928.8652    5921.6825    5467.3259   -1444.3229    3530.3657   -2019.1595     1343.007    2023.0939    581.92391            0    3948.0248   -4105.2024   -63.312298      36.6857      36.6857      36.6857            0            0            0   0.79981221 
273000 0.79981221236869404212 304.62700921019302314 -1093.3984687849299462 1837.6216828388999147 3903.6435421367400522 5741.2652249756401943 4953.9570126349399288
273000 0.79981221236869404212 304.62700921019302314 -1093.3984687849299462 1837.6216828388999147 3903.6435421367400522 5741.2652249756401943 4953.9570126349399288
  273000    49373.104    304.62701   -1093.3985    3903.6435    1837.6217    5741.2652     4953.957   -1454.4227    3500.8937   -2056.7159    1362.0364    1938.6975    593.60375            0    3894.3376   -4103.1869   -63.312298      36.6857      36.6857      36.6857            0            0            0   0.79981221 
274000 0.79981221236869304292 309.2910601845019869 -452.86859300585098254 1919.1942483855000319 3963.4110345638300714 5882.6052829493301033 5556.514500344789667
274000 0.79981221236869304292 309.2910601845019869 -452.86859300585098254 1919.1942483855000319 3963.4110345638300714 5882.6052829493301033 5556.514500344789667
  274000    49373.104    309.29106   -452.86859     3963.411    1919.1942    5882.6053    5556.5145   -1444.5789    3495.2591   -2050.7203    1411.7227    1989.6673    568.52452            0    3969.9145   -4101.4005   -63.312298      36.6857      36.6857      36.6857            0            0            0   0.79981221 
275000 0.79981221236869304292 308.54882607750602119 -770.10213350553999589 1833.0080751526900258 3953.8996738146997814 5786.9077489673900345 5232.3910276079895993
275000 0.79981221236869304292 308.54882607750602119 -770.10213350553999589 1833.0080751526900258 3953.8996738146997814 5786.9077489673900345 5232.3910276079895993
  275000    49373.104    308.54883   -770.10213    3953.8997    1833.0081    5786.9077     5232.391   -1463.6509     3547.916   -2019.9016    1341.6251      1938.41    572.87459            0    3852.9097   -4104.1667   -63.312298      36.6857      36.6857      36.6857            0            0            0   0.79981221 
276000 0.79981221236869304292 313.52117483285098842 -249.48203093813100395 1863.2104821670000092 4017.6178488983200623 5880.8283310653096123 5701.1872785153600489
276000 0.79981221236869304292 313.52117483285098842 -249.48203093813100395 1863.2104821670000092 4017.6178488983200623 5880.8283310653096123 5701.1872785153600489
  276000    49373.104    313.52117   -249.48203    4017.6178    1863.2105    5880.8283    5701.1873   -1490.7219    3552.2134    -2041.616    1367.1793    1961.5176    576.12952            0    3904.8265   -4103.1075   -63.312298      36.6857      36.6857      36.6857            0            0            0   0.79981221 
277000 0.79981221236869404212 306.50337686502001588 -1134.8027939441599301 1921.9198415042899342 3927.6882599620898873 5849.6081014663895985 5032.4864531689700016
277000 0.79981221236869404212 306.50337686502001588 -1134.8027939441599301 1921.9198415042899342 3927.6882599620898873 5849.6081014663895985 5032.4864531689700016
  277000    49373.104    306.50338   -1134.8028    3927.6883    1921.9198    5849.6081    5032.4865   -1422.3226    3528.9258   -1997.2978    1352.4467    1985.2366    581.53428            0    3919.2176    -4103.901   -63.312298      36.6857      36.6857      36.6857            0            0            0   0.79981221 
278000 0.79981221236869404212 311.93194338028001766 120.70798418356800141 1887.025715624600025 3997.2526386273298158 5884.2783542519300681 5971.1948718399098652
278000 0.79981221236869404212 311.93194338028001766 120.70798418356800141 1887.025715624600025 3997.2526386273298158 5884.2783542519300681 5971.1948718399098652
  278000    49373.104    311.93194    120.70798    3997.2526    1887.0257    5884.2784    5971.1949   -1468.5122    3534.9361   -2040.7417    1339.4638    2015.9265    572.37706            0    3927.7674   -4107.1656   -63.312298      36.6857      36.6857      36.6857            0            0            0   0.79981221 
279000 0.79981221236869304292 300.9507739665160102 -891.53073964334305401 1926.52581821269996 3856.5344167654798184 5783.0602349781802332 5141.1081078132301627
279000 0.79981221236869304292 300.9507739665160102 -891.53073964334305401 1926.52581821269996 3856.5344167654798184 5783.0602349781802332 5141.1081078132301627
  279000    49373.104    300.95077   -891.53074    3856.5344    1926.5258    5783.0602    5141.1081   -1481.5409    3528.0749   -2059.7874    1381.4429      2019.78     585.0903            0    3986.3132   -4106.3214   -63.312298      36.6857      36.6857      36.6857            0            0            0   0.79981221 
280000 0.79981221236869304292 316.29667973596099273 -3.6480346886970300702 1969.7633879670499937 4053.1845631541700641 6022.9479511212202851 6020.3211615734799125
280000 0.79981221236869304292 316.29667973596099273 -3.6480346886970300702 1969.7633879670499937 4053.1845631541700641 6022.9479511212202851 6020.3211615734799125
  280000    49373.104    316.29668   -3.6480347    4053.1846    1969.7634     6022.948    6020.3212   -1453.6611    3540.0286   -2020.8458    1394.2109    2024.5167    571.88159            0    3990.6092   -4107.2133   -63.312298      36.6857      36.6857      36.6857            0            0            0   0.79981221 
  280486    49373.104    310.83383   -1389.2816    3983.1809    1998.9375    5982.1184    4981.7577   -1436.1693     3538.519   -2001.5726    1458.8002    1963.2748     578.4351            0    4000.5101   -4103.9224   -63.312298      36.6857      36.6857      36.6857            0            0            0   0.79981221 
Loop time of 88.9747 on 48 procs for 30000 steps with 4300 atoms

Performance: 29.132 ns/day, 0.824 hours/ns, 337.174 timesteps/s
57.8% CPU use with 48 MPI tasks x 1 OpenMP threads

MPI task timing breakdown:
Section |  min time  |  avg time  |  max time  |%varavg| %total
---------------------------------------------------------------
Pair    | 21.215     | 26.748     | 32.384     |  47.2 | 30.06
Bond    | 1.2717     | 1.8706     | 2.3407     |  15.8 |  2.10
Kspace  | 11.499     | 18.295     | 23.177     |  62.7 | 20.56
Neigh   | 5.9993     | 6.4554     | 6.926      |  11.6 |  7.26
Comm    | 23.674     | 27.138     | 32.151     |  37.3 | 30.50
Output  | 0.16072    | 0.161      | 0.16119    |   0.0 |  0.18
Modify  | 1.8476     | 5.0668     | 7.2011     |  58.8 |  5.69
Other   |            | 3.24       |            |       |  3.64

Nlocal:    89.5833 ave 110 max 62 min
Histogram: 1 1 3 5 6 10 8 6 5 3
Nghost:    4005.12 ave 4059 max 3936 min
Histogram: 3 3 2 6 4 6 8 6 5 5
Neighs:    35854.9 ave 46951 max 25663 min
Histogram: 1 5 5 4 13 9 3 3 2 3

Total # of neighbors = 1721036
Ave neighs/atom = 400.241
Ave special neighs/atom = 10.0698
Neighbor list builds = 3324
Dangerous builds = 0

write_data      restart.${NAME}.final.data
write_data      restart.DCM_octanol_25p.final.data
Ewald initialization ...
  using 12-bit tables for long-range coulomb (src/kspace.cpp:332)
  G vector (1/distance) = 0.165674
  estimated absolute RMS force accuracy = 0.0407329
  estimated relative force accuracy = 0.000122666
  KSpace vectors: actual max1d max3d = 128 4 364
                  kxmax kymax kzmax  = 4 4 4
Total wall time: 0:13:34
