
variable        infile index diEther.data   # The name of the (edited) data file

#>>>>>> Simulation settings <<<<<<<

units		 real		#angstroms = length -
atom_style	 full		#How the atoms are defined in the input data file
boundary        p p p           #periodic box in x, y and z
pair_style	 lj/cut/coul/long 14.0    #'lj/cut/coul/long
pair_modify     tail yes            #Tail corrections
pair_modify     mix arithmetic      #Lorentz-Berthelot pair interactions between dissimilar atom

special_bonds   lj/coul 0.0 0.0 0.5
kspace_style    ewald 0.0001
bond_style      harmonic
angle_style     harmonic
dihedral_style  opls


# inputs settings
variable   simulationTemp  index 310     #Simulation temperature
variable   simulationPress equal 0.987	 #Simulation pressure

# Output files frequencies
variable        dumpfreq   index 1000          #Output frequency of dump information to dump
variable        thermofreq index 1000          #Output frequency of property information to log
variable        printfreq  index 1000          #Output frequency of information to be printed
variable        restartfreq index 1000000      #Output frequency of restart files


# Simulation run times (equilibration and production)
variable        NVT_equib  index 100000       # Equilibration run length (in timesteps)
variable        NVT_prod   index 30000       # Simulation run length  (in timesteps)


# Output
variable    step        equal step
variable    density     equal density
variable    temp        equal temp
variable    press       equal press
variable    ke          equal ke
variable    pe          equal pe
variable    etotal      equal etotal
variable    enthalpy    equal enthalpy


# >>>>>>>>>>> Reading data, Neighbor list settings, energy minimization, assigning initial velocities & specifying thermodynamic property output style to log files <<<<<<<<<

read_data	${infile}
read_data	diEther.data
  orthogonal box = (0 0 0) to (40 40 40)
  3 by 4 by 4 MPI processor grid
  reading atoms ...
  3000 atoms
  scanning bonds ...
  1 = max bonds/atom
  scanning angles ...
  6 = max angles/atom
  scanning dihedrals ...
  9 = max dihedrals/atom
  reading bonds ...
  2800 bonds
  reading angles ...
  5000 angles
  reading dihedrals ...
  4800 dihedrals
  4 = max # of 1-2 neighbors
  6 = max # of 1-3 neighbors
  12 = max # of 1-4 neighbors
  14 = max # of special neighbors
  special bonds CPU = 0.0207401 secs
  read_data CPU = 0.0556805 secs
neighbor        1.0 bin
neigh_modify    delay 0 every 1 check yes page 1000000 one 20000
timestep        1.0

minimize        1e-4 1e-6 10000 100000        #Energy minimize before creating velocities
Ewald initialization ...
  using 12-bit tables for long-range coulomb (src/kspace.cpp:332)
  G vector (1/distance) = 0.125867
  estimated absolute RMS force accuracy = 0.0396215
  estimated relative force accuracy = 0.000119319
  KSpace vectors: actual max1d max3d = 61 3 171
                  kxmax kymax kzmax  = 3 3 3
Neighbor list info ...
  update every 1 steps, delay 0 steps, check yes
  max neighbors/atom: 20000, page size: 1000000
  master list distance cutoff = 15
  ghost atom cutoff = 15
  binsize = 7.5, bins = 6 6 6
  1 neighbor lists, perpetual/occasional/extra = 1 0 0
  (1) pair lj/cut/coul/long, perpetual
      attributes: half, newton on
      pair build: half/bin/newton
      stencil: half/bin/3d/newton
      bin: standard
Per MPI rank memory allocation (min/avg/max) = 21.5 | 21.61 | 22.01 Mbytes
Step Temp E_pair E_mol TotEng Press 
       0            0   -710.98631    969.41914    258.43284   -6555.5081 
     532            0   -1898.7584    543.67486   -1355.0835   -199.42265 
Loop time of 4.54654 on 48 procs for 532 steps with 3000 atoms

43.5% CPU use with 48 MPI tasks x 1 OpenMP threads

Minimization stats:
  Stopping criterion = energy tolerance
  Energy initial, next-to-last, final = 
         258.432836109     -1355.07151282     -1355.08349306
  Force two-norm initial, final = 994.114 24.0064
  Force max component initial, final = 126.53 5.60947
  Final line search alpha, max atom move = 0.00957171 0.0536922
  Iterations, force evaluations = 532 1063

MPI task timing breakdown:
Section |  min time  |  avg time  |  max time  |%varavg| %total
---------------------------------------------------------------
Pair    | 0.085071   | 0.8806     | 2.6799     |  67.7 | 19.37
Bond    | 0.0065866  | 0.037339   | 0.072021   |   9.0 |  0.82
Kspace  | 0.34831    | 2.1646     | 2.9753     |  44.1 | 47.61
Neigh   | 0.06918    | 0.073057   | 0.077408   |   0.9 |  1.61
Comm    | 0.66938    | 0.78553    | 0.97428    |   7.3 | 17.28
Output  | 0          | 0          | 0          |   0.0 |  0.00
Modify  | 0          | 0          | 0          |   0.0 |  0.00
Other   |            | 0.6054     |            |       | 13.32

Nlocal:    62.5 ave 145 max 5 min
Histogram: 3 7 11 4 4 8 4 2 1 4
Nghost:    3171.83 ave 3346 max 2879 min
Histogram: 5 7 4 0 0 0 0 9 11 12
Neighs:    25917.5 ave 88214 max 809 min
Histogram: 13 10 7 3 6 3 2 1 1 2

Total # of neighbors = 1244040
Ave neighs/atom = 414.68
Ave special neighs/atom = 8.4
Neighbor list builds = 34
Dangerous builds = 0
#velocity	all create ${simulationTemp} 886874 mom yes rot yes dist gaussian

velocity        all create  ${simulationTemp} 317879265 units box
velocity        all create  310 317879265 units box
velocity        all zero linear units box

# The 'velocity' command line above assigns initial velocities to the atoms in our data file, see the LAMMPS 'velocity' command
# The number '886874' is the seed number which helps LAMMPS to consistently assign the same randomized velocities for the same simulation with the same seed number
# Changing that seed number for your simulation of a given system is one easy way to run an 'independent' simulation of the same system as taught in class
# You will need to do this for your homework

thermo_style    custom step vol temp press ke pe etotal enthalpy evdwl ecoul epair ebond eangle edihed eimp emol elong etail lx ly lz xy xz yz density
thermo          ${thermofreq}
thermo          1000

fix npt_density all npt temp ${simulationTemp} ${simulationTemp} 100 iso ${simulationPress} ${simulationPress} 1000
fix npt_density all npt temp 310 ${simulationTemp} 100 iso ${simulationPress} ${simulationPress} 1000
fix npt_density all npt temp 310 310 100 iso ${simulationPress} ${simulationPress} 1000
fix npt_density all npt temp 310 310 100 iso 0.987 ${simulationPress} 1000
fix npt_density all npt temp 310 310 100 iso 0.987 0.987 1000

run 50000
Ewald initialization ...
  using 12-bit tables for long-range coulomb (src/kspace.cpp:332)
  G vector (1/distance) = 0.125867
  estimated absolute RMS force accuracy = 0.0396215
  estimated relative force accuracy = 0.000119319
  KSpace vectors: actual max1d max3d = 61 3 171
                  kxmax kymax kzmax  = 3 3 3
Per MPI rank memory allocation (min/avg/max) = 20.4 | 20.53 | 20.91 Mbytes
Step Volume Temp Press KinEng PotEng TotEng Enthalpy E_vdwl E_coul E_pair E_bond E_angle E_dihed E_impro E_mol E_long E_tail Lx Ly Lz Xy Xz Yz Density 
     532        64000          310    1779.9398    2771.2293   -1355.0835    1416.1458     3077.496   -1082.2801    543.24918   -1898.7584    21.325505    236.39382    285.95553            0    543.67486   -1359.7274   -12.745629           40           40           40            0            0            0   0.38463281 
    1000    67177.042    294.47069    279.02183    2632.4058    567.81193    3200.2178    3473.5778     -733.502    565.14668   -1528.8506     559.2398    1096.8159    440.60687            0    2096.6626   -1360.4953   -12.142843    40.651224    40.651224    40.651224            0            0            0   0.36644215 
    2000    63352.751    311.96577    530.81309    2788.8022    1525.6757    4314.4779    4804.9146   -549.14034    575.98424   -1333.4097    939.06947    1461.3131    458.70287            0    2859.0854   -1360.2536   -12.875846    39.864699    39.864699    39.864699            0            0            0   0.38856245 
    3000    58666.543    311.23392   -362.34592    2782.2598    1314.2676    4096.5275    3786.5074   -553.40138    558.05329   -1355.5988    891.72515    1359.2641    418.87716            0    2669.8664   -1360.2507   -13.904352    38.856484    38.856484    38.856484            0            0            0   0.41960032 
    4000     54708.84    304.94055   -616.42881    2726.0006     1220.854    3946.8546    3455.0231   -606.31215    547.64791    -1419.587    907.29817    1331.8608    401.28201            0     2640.441   -1360.9228    -14.91021    37.962299    37.962299    37.962299            0            0            0    0.4499547 
    5000    51272.836    317.18451   -180.15482    2835.4549    1149.5181     3984.973    3850.2601    -653.1438    554.10329   -1458.5948    879.05894    1338.0357    391.01822            0    2608.1129   -1359.5543   -15.909404     37.15031     37.15031     37.15031            0            0            0   0.48010802 
    6000    48326.568    309.69153    293.69998    2768.4718    1066.4626    3834.9343    4041.9321   -665.72541    542.64836   -1482.8805     872.9152    1326.9008    349.52709            0     2549.343   -1359.8034   -16.879334    36.424644    36.424644    36.424644            0            0            0    0.5093782 
    7000    46117.367     307.0212    32.251382    2744.6004    995.46964    3740.0701    3761.7615   -691.66499     534.2306   -1518.3612    870.22237    1295.2479    348.36051            0    2513.8308   -1360.9268   -17.687919    35.860926    35.860926    35.860926            0            0            0   0.53377939 
    8000    44260.195    311.98114   -338.10341    2788.9396    907.29965    3696.2392     3477.997   -740.10123    524.69038    -1576.015    867.52154    1262.3321    353.46101            0    2483.3147   -1360.6042    -18.43011    35.372936    35.372936    35.372936            0            0            0   0.55617693 
    9000     42242.58    313.64487   -543.79688    2803.8124    893.93738    3697.7498    3362.7357   -780.79651    533.19239   -1608.2863    855.81735    1304.8441    341.56223            0    2502.2237   -1360.6822    -19.31038     34.82706     34.82706     34.82706            0            0            0    0.5827414 
   10000    41189.612    308.13409   -860.45609    2754.5491     880.9564    3635.5055    3118.6224   -796.49878    539.50555   -1617.5638    862.10433    1305.5246    330.89125            0    2498.5202   -1360.5706   -19.804029    34.535247    34.535247    34.535247            0            0            0   0.59763855 
   11000    40101.164    313.04602    391.96781    2798.4591    910.30911    3708.7682    3938.0044   -783.56869    528.29903   -1614.9167    884.25246    1290.1587    350.81469            0    2525.2258   -1359.6471   -20.341561    34.228326    34.228326    34.228326            0            0            0   0.61385998 
   12000    39037.685    313.60195    1031.3103    2803.4287    802.17809    3605.6068    4192.7571   -852.26262    533.23298    -1678.893    864.34285    1286.5946    330.13367            0    2481.0711   -1359.8634   -20.895713    33.923034    33.923034    33.923034            0            0            0   0.63058298 
   13000    38161.916     316.0112    532.29323    2824.9661    833.26851    3658.2346    3954.4837   -869.39635    520.14255   -1710.3212    872.90245    1309.8026    360.88474            0    2543.5897   -1361.0674   -21.375244    33.667437    33.667437    33.667437            0            0            0   0.64505409 
   14000    37824.437    307.58294     400.9998    2749.6221    808.95176    3558.5738    3779.7776    -898.0619    531.24684   -1727.2557    854.28272    1338.6483    343.27641            0    2536.2075   -1360.4407   -21.565959    33.567899    33.567899    33.567899            0            0            0   0.65080942 
   15000    38461.687    315.85262   -932.82565    2823.5485    844.75691    3668.3054    3145.0608    -877.3734    524.68924   -1712.4198    892.15695    1330.5884    334.43137            0    2557.1767   -1359.7356   -21.208645    33.755362    33.755362    33.755362            0            0            0   0.64002653 
   16000    38433.577    309.03306   -293.69131    2762.5854    886.79054    3649.3759    3484.7578   -862.66019    533.79495   -1689.6393    867.46509    1353.7882    355.17656            0    2576.4299   -1360.7741   -21.224157    33.747137    33.747137    33.747137            0            0            0   0.64049464 
   17000    37120.848    313.54382   -243.99586    2802.9091    745.44555    3548.3546    3416.2627   -928.95625    524.24039   -1765.8022    869.61335    1324.7524    316.88207            0    2511.2478   -1361.0864   -21.974721    33.358458    33.358458    33.358458            0            0            0   0.66314487 
   18000    36531.553    311.21565    229.42476    2782.0965    719.75774    3501.8543    3624.0861   -931.96313    517.29146   -1775.6354    897.94327    1277.5616    319.88825            0    2495.3931   -1360.9637   -22.329197    33.180993    33.180993    33.180993            0            0            0   0.67384213 
   19000    36428.239    311.42708   -814.84562    2783.9866    714.16162    3498.1482    3065.2464   -934.05932    520.12838   -1775.1307    881.56632    1277.6947    330.03127            0    2489.2923   -1361.1997   -22.392525    33.149684    33.149684    33.149684            0            0            0   0.67575322 
   20000    36092.486    305.46282    858.44809    2730.6694    746.01407    3476.6835    3928.5464   -940.12127    518.51763   -1782.1529    894.91394    1318.2841    314.96892            0     2528.167   -1360.5493   -22.600834    33.047524    33.047524    33.047524            0            0            0   0.68203946 
   21000    36466.597    316.27828    342.91705    2827.3537    815.75407    3643.1077    3825.4806   -905.36876    522.59611   -1744.2965    911.03184    1346.6659    302.35284            0    2560.0506   -1361.5238   -22.368972    33.161315    33.161315    33.161315            0            0            0   0.67504242 
   22000    35907.528    313.48884   -723.59099    2802.4176      724.239    3526.6566    3147.7305    -945.9958    519.81097   -1786.4043    903.07914    1287.8558    319.70832            0    2510.6433   -1360.2194    -22.71725    32.990976    32.990976    32.990976            0            0            0   0.68555263 
   23000     36218.16    304.96882    399.65739    2726.2533     723.1862    3449.4395    3660.5405   -932.86339    512.37324   -1781.5895    864.98657     1330.324    309.46515            0    2504.7757   -1361.0993    -22.52241    33.085837    33.085837    33.085837            0            0            0   0.67967284 
   24000    35549.919    305.00208   -718.89798    2726.5507    796.47347    3523.0241    3150.3049   -988.41834    518.12069   -1830.9342    900.22053    1388.2601      338.927            0    2627.4077   -1360.6366    -22.94577     32.88109     32.88109     32.88109            0            0            0   0.69244884 
   25000    35909.952     310.0278   -2198.1192    2771.4778    715.21072    3486.6885     2335.512   -980.66966    516.79468   -1825.5186    906.44338     1310.952    323.33393            0    2540.7293   -1361.6436   -22.715716    32.991719    32.991719    32.991719            0            0            0   0.68550635 
   26000    35741.695    314.58345   -1687.7257    2812.2028    779.63944    3591.8423    2712.1052   -966.50148    513.61892   -1814.6003    928.36945    1352.5289    313.34141            0    2594.2398   -1361.7178   -22.822652     32.94011     32.94011     32.94011            0            0            0   0.68873343 
   27000    35729.432    307.25269   -739.66474    2746.6699    743.37944    3490.0493     3104.627   -980.69609    521.28552   -1820.8326    890.49237    1340.8363    332.88339            0    2564.2121   -1361.4221   -22.830485    32.936342    32.936342    32.936342            0            0            0   0.68896981 
   28000    36571.954    313.14296   -643.45388    2799.3256     773.0404     3572.366    3229.1706   -943.12618    516.08705   -1788.5197    912.86415    1330.9998    317.69616            0    2561.5601   -1361.4806   -22.304531     33.19322     33.19322     33.19322            0            0            0   0.67309774 
   29000     35601.93    301.07239    682.71482    2691.4214    688.06657     3379.488    3733.9655   -984.35418    514.51636   -1830.9638    879.26315    1319.7139    320.05334            0    2519.0304    -1361.126   -22.912248    32.897118    32.897118    32.897118            0            0            0   0.69143723 
   30000    35414.932    308.66461     799.1333    2759.2917    734.98237    3494.2741    3907.0188   -998.21986    512.10796    -1848.052     906.2244    1370.8071    306.00284            0    2583.0343   -1361.9401    -23.03323    32.839419    32.839419    32.839419            0            0            0   0.69508815 
   31000    35966.938     313.0309   -344.58415    2798.3239    782.61101    3580.9349    3400.1864   -951.91467    508.05631   -1804.3116    919.09401    1363.4575    304.37104            0    2586.9226   -1360.4532   -22.679725    33.009161    33.009161    33.009161            0            0            0   0.68442022 
   32000    35527.508    315.69665    574.47376    2822.1542    677.72102    3499.8752    3797.5286   -987.23031    502.66325   -1846.7234    892.81232    1313.7084    317.92368            0    2524.4444   -1362.1564   -22.960244    32.874179    32.874179    32.874179            0            0            0   0.69288563 
   33000    36067.994      314.695    154.36552    2813.2001     712.4556    3525.6557    3606.8542   -978.46659    518.69567   -1820.8147    916.37663    1312.0518    304.84181            0    2533.2703   -1361.0438   -22.616181    33.040047    33.040047    33.040047            0            0            0   0.68250261 
   34000    35650.841    309.53292      2580.53    2767.0538    705.16351    3472.2173    4813.9148   -954.83725    514.29398   -1802.0535    883.71901    1328.9525     294.5455            0     2507.217   -1361.5102   -22.880814    32.912176    32.912176    32.912176            0            0            0   0.69048861 
   35000    36128.256    311.11928   -1012.5562     2781.235    658.40244    3439.6375    2906.1281   -973.73926    505.48327   -1829.4447    885.94186    1296.9163    304.98895            0    2487.8471   -1361.1887   -22.578457    33.058438    33.058438    33.058438            0            0            0   0.68136419 
   36000    34830.557    314.81736   -1327.3433    2814.2938    611.20362    3425.4974    2751.2495   -1014.2112    506.56353    -1868.908    879.32248    1289.5277     311.2615            0    2480.1116   -1361.2603   -23.419673    32.657791    32.657791    32.657791            0            0            0    0.7067501 
   37000    34722.538    308.81344   -1362.4062    2760.6221    678.78231    3439.4044    2749.4919   -1038.3584    511.02198   -1888.7788    897.27504     1339.583    330.70303            0    2567.5611   -1361.4423    -23.49253    32.623996    32.623996    32.623996            0            0            0   0.70894875 
   38000    35072.324    307.67615   -1217.0095    2750.4553    738.04119    3488.4965    2866.0036    -1011.506     509.1004   -1863.5617    909.35554    1364.7452    327.50214            0    2601.6029   -1361.1561   -23.258233    32.733179    32.733179    32.733179            0            0            0    0.7018782 
   39000    35658.111    307.58901      113.128    2749.6764    724.55429    3474.2307    3533.0614   -990.86038    513.39698   -1838.7752     915.7272    1329.9063    317.69604            0    2563.3295   -1361.3118   -22.876149    32.914413    32.914413    32.914413            0            0            0   0.69034783 
   40000    34946.378    305.09219   -1108.3086    2727.3561    664.14154    3391.4977    2826.6404   -1012.4692    502.04193   -1871.6371    874.26697    1366.2573    295.25444            0    2535.7787   -1361.2098   -23.342054     32.69395     32.69395     32.69395            0            0            0   0.70440775 
   41000    35799.375    304.77079    -785.8405     2724.483    677.27537    3401.7584    2991.4733   -978.84362    509.89952   -1829.8741    855.83011    1339.4307    311.88864            0    2507.1495     -1360.93    -22.78588     32.95782     32.95782     32.95782            0            0            0   0.68762372 
   42000    35401.257    315.84657   -1680.0533    2823.4944    687.63769    3511.1321    2643.7357   -1011.7632    516.20452   -1855.7061    878.28573     1362.536     302.5221            0    2543.3438   -1360.1474   -23.042127    32.835192    32.835192    32.835192            0            0            0   0.69535666 
   43000    36067.286    307.87883   -673.56708    2752.2672    747.41853    3499.6857    3145.3865   -962.69584     515.5973   -1808.0195    911.87632    1349.1826    294.37916            0     2555.438    -1360.921   -22.616624    33.039831    33.039831    33.039831            0            0            0     0.682516 
   44000    34646.533    308.37382    738.65998    2756.6922    617.04644    3373.7386    3746.9718   -1024.5858    512.44874   -1873.3445    897.54411    1294.2727     298.5741            0    2490.3909   -1361.2074   -23.544066    32.600175    32.600175    32.600175            0            0            0   0.71050398 
   45000    35369.221    311.43664    -1046.739    2784.0721     737.2704    3521.3425    2981.4096   -1015.6085    504.92818   -1872.1874    930.11938     1353.789    325.54943            0    2609.4578   -1361.5071   -23.062998    32.825285    32.825285    32.825285            0            0            0   0.69598648 
   46000    35850.231     321.7157   -47.481778    2875.9612    790.24569    3666.2069    3641.3816   -958.48164      519.954   -1799.8525    946.70466    1331.9945    311.39901            0    2590.0982   -1361.3248   -22.753557    32.973419    32.973419    32.973419            0            0            0   0.68664828 
   47000    35711.677    308.08596   -346.05241    2754.1188    791.35575    3545.4745    3365.2442   -973.21203    513.44539   -1820.8469    912.03461    1395.8143    304.35375            0    2612.2027   -1361.0803   -22.841836    32.930886    32.930886    32.930886            0            0            0   0.68931235 
   48000    35067.453    311.52128    930.62138    2784.8287    665.72499    3450.5537    3926.4947   -1019.9949    506.26649     -1874.68    880.26677     1351.911    308.22725            0     2540.405   -1360.9517   -23.261463    32.731663    32.731663    32.731663            0            0            0   0.70197569 
   49000    35091.664    308.81012   -287.19854    2760.5924    669.76923    3430.3616    3283.3803   -1015.3675    507.65654   -1869.2493    890.50883     1335.147    313.36267            0    2539.0185   -1361.5383   -23.245415    32.739194    32.739194    32.739194            0            0            0   0.70149139 
   50000    35605.414    313.66351    559.18529    2803.9791    681.75662    3485.7357    3776.1029   -981.52903    512.27933   -1830.4309    839.06791    1351.4953    321.62431            0    2512.1875   -1361.1812   -22.910007    32.898191    32.898191    32.898191            0            0            0   0.69136957 
   50532    35002.635    310.09438    616.47969     2772.073    629.15967    3401.2327    3715.9317   -1021.3132    507.12646   -1876.1099    872.22842    1324.7405    308.30062            0    2505.2695   -1361.9231   -23.304539    32.711484    32.711484    32.711484            0            0            0   0.70327562 
Loop time of 157.571 on 48 procs for 50000 steps with 3000 atoms

Performance: 27.416 ns/day, 0.875 hours/ns, 317.316 timesteps/s
52.9% CPU use with 48 MPI tasks x 1 OpenMP threads

MPI task timing breakdown:
Section |  min time  |  avg time  |  max time  |%varavg| %total
---------------------------------------------------------------
Pair    | 38.203     | 43.051     | 49.234     |  39.7 | 27.32
Bond    | 1.6802     | 1.9055     | 2.1122     |   8.3 |  1.21
Kspace  | 20.21      | 28.334     | 34.001     |  66.9 | 17.98
Neigh   | 9.2641     | 9.9588     | 10.559     |  13.9 |  6.32
Comm    | 39.891     | 45.45      | 53.586     |  48.3 | 28.84
Output  | 0.059615   | 0.060497   | 0.070171   |   0.6 |  0.04
Modify  | 18.413     | 22.913     | 26.559     |  43.8 | 14.54
Other   |            | 5.899      |            |       |  3.74

Nlocal:    62.5 ave 76 max 42 min
Histogram: 1 0 2 5 6 9 8 7 5 5
Nghost:    5060.19 ave 5136 max 4977 min
Histogram: 2 3 3 7 3 10 10 5 2 3
Neighs:    37867.8 ave 48392 max 28143 min
Histogram: 3 1 10 4 6 9 5 6 2 2

Total # of neighbors = 1817654
Ave neighs/atom = 605.885
Ave special neighs/atom = 8.4
Neighbor list builds = 5447
Dangerous builds = 0

unfix npt_density

fix reshape_box all deform 1 x final 0.0 36.6857 y final 0.0 36.6857 z final 0.0 36.6857 units box

run 100000
Ewald initialization ...
  using 12-bit tables for long-range coulomb (src/kspace.cpp:332)
  G vector (1/distance) = 0.131841
  estimated absolute RMS force accuracy = 0.0341018
  estimated relative force accuracy = 0.000102697
  KSpace vectors: actual max1d max3d = 61 3 171
                  kxmax kymax kzmax  = 3 3 3
Per MPI rank memory allocation (min/avg/max) = 20.46 | 20.74 | 20.93 Mbytes
Step Volume Temp Press KinEng PotEng TotEng Enthalpy E_vdwl E_coul E_pair E_bond E_angle E_dihed E_impro E_mol E_long E_tail Lx Ly Lz Xy Xz Yz Density 
   50532    35002.635    310.09438    617.25745     2772.073    629.21815    3401.2912    3716.3872   -1021.3132    571.57242   -1876.0514    872.22842    1324.7405    308.30062            0    2505.2695   -1426.3106   -23.304539    32.711484    32.711484    32.711484            0            0            0   0.70327562 
   51000    35062.375    310.09438   -413.34403     2772.073    632.21351    3404.2865    3192.9236   -1023.2838    571.99351   -1877.5977     876.7701    1324.7405    308.30062            0    2509.8112   -1426.3074   -23.264832    32.730083    32.730083    32.730083            0            0            0   0.70207737 
   52000    35190.252    310.09438   -2606.2642     2772.073     642.3907    3414.4637    2076.8931   -1027.3521    573.64986   -1880.0027     889.3523    1324.7405    308.30062            0    2522.3934   -1426.3005    -23.18029    32.769825    32.769825    32.769825            0            0            0   0.69952609 
   53000     35318.44    310.09438   -4787.1069     2772.073    656.48304    3428.5561    962.79757   -1031.2233    575.12942   -1882.3875    905.82947    1324.7405    308.30062            0    2538.8706   -1426.2936   -23.096158    32.809568    32.809568    32.809568            0            0            0   0.69698717 
   54000    35446.939    310.09438   -6956.7931     2772.073    674.34368    3446.4167   -149.94796   -1034.8947     576.2824    -1884.899    926.20161    1324.7405    308.30062            0    2559.2427   -1426.2868   -23.012432     32.84931     32.84931     32.84931            0            0            0   0.69446051 
   55000     35575.75    310.09438   -9112.4265     2772.073    696.50766    3468.5807   -1259.2726   -1038.3782    577.65588   -1887.0022    950.46872    1324.7405    308.30062            0    2583.5098   -1426.2799    -22.92911    32.889052    32.889052    32.889052            0            0            0   0.69194606 
   56000    35704.872    310.09438   -11257.481     2772.073    722.36808    3494.4411   -2367.5426   -1041.6716    578.64072   -1889.3038     978.6308    1324.7405    308.30062            0    2611.6719    -1426.273    -22.84619    32.928794    32.928794    32.928794            0            0            0   0.68944373 
   57000    35834.306    310.09438   -13390.823     2772.073    752.14307    3524.2161   -3473.9165   -1044.7827    579.46291   -1891.5859    1010.6878    1324.7405    308.30062            0     2643.729   -1426.2661   -22.763669    32.968536    32.968536    32.968536            0            0            0   0.68695345 
   58000    35964.052    310.09438   -15511.505     2772.073    786.02097     3558.094   -4577.6722   -1047.7177    580.31684     -1893.66    1046.6399    1324.7405    308.30062            0     2679.681   -1426.2591   -22.681545    33.008278    33.008278    33.008278            0            0            0   0.68447514 
   59000    36094.111    310.09438   -17618.585     2772.073    824.19256    3596.2656   -5678.0798   -1050.4763    581.39306   -1895.3354    1086.4869    1324.7405    308.30062            0     2719.528   -1426.2522   -22.599816    33.048021    33.048021    33.048021            0            0            0   0.68200875 
   60000    36224.484    310.09438   -19716.868     2772.073    865.79467    3637.8677   -6778.4935   -1053.0647     581.8347   -1897.4753    1130.2288    1324.7405    308.30062            0    2763.2699   -1426.2453   -22.518479    33.087763    33.087763    33.087763            0            0            0   0.67955419 
   61000     36355.17    310.09438   -21801.024     2772.073    911.81951    3683.8925    -7875.073   -1055.4873    582.63828   -1899.0873    1177.8657    1324.7405    308.30062            0    2810.9068   -1426.2383   -22.437532    33.127505    33.127505    33.127505            0            0            0    0.6771114 
   62000     36486.17    310.09438   -23871.648     2772.073     962.1775    3734.2505   -8968.1723   -1057.7476    583.71775   -1900.2612    1229.3976    1324.7405    308.30062            0    2862.4387   -1426.2314   -22.356972    33.167247    33.167247    33.167247            0            0            0    0.6746803 
   63000    36617.484    310.09438   -25931.815     2772.073     1016.317      3788.39   -10059.937   -1059.8487    584.52445   -1901.5486    1284.8245    1324.7405    308.30062            0    2917.8656   -1426.2244   -22.276797    33.206989    33.206989    33.206989            0            0            0   0.67226082 
   64000    36749.113    310.09438   -27978.895     2772.073     1074.741     3846.814   -11148.422   -1061.7968    585.56778   -1902.4464    1344.1463    1324.7405    308.30062            0    2977.1874   -1426.2174   -22.197006    33.246731    33.246731    33.246731            0            0            0    0.6698529 
   65000    36881.057    310.09438    -30017.08     2772.073    1136.6857    3908.7587     -12236.6    -1063.591    586.08294   -1903.7185    1407.3632    1324.7405    308.30062            0    3040.4043   -1426.2104   -22.117595    33.286473    33.286473    33.286473            0            0            0   0.66745646 
   66000    37013.316    310.09438   -32040.515     2772.073    1203.2595    3975.3325   -13320.178    -1065.238    587.18492   -1904.2565    1474.4749    1324.7405    308.30062            0     3107.516   -1426.2035   -22.038562    33.326216    33.326216    33.326216            0            0            0   0.66507144 
   67000    37145.892    310.09438    -34052.27     2772.073    1273.9066    4045.9796   -14401.318   -1066.7383    588.31854   -1904.6162    1545.4817    1324.7405    308.30062            0    3178.5228   -1426.1965   -21.959905    33.365958    33.365958    33.365958            0            0            0   0.66269778 
   68000    37278.783    310.09438   -36054.136     2772.073    1348.3053    4120.3783   -15481.275   -1068.0938    589.16405   -1905.1192    1620.3834    1324.7405    308.30062            0    3253.4245   -1426.1894   -21.881623      33.4057      33.4057      33.4057            0            0            0   0.66033539 
   69000    37411.991    310.09438   -38043.944     2772.073     1426.878    4198.9511   -16558.415   -1069.3137      590.153   -1905.3431    1699.1801    1324.7405    308.30062            0    3332.2212   -1426.1824   -21.803712    33.445442    33.445442    33.445442            0            0            0   0.65798422 
   70000    37545.516    310.09438   -40025.639     2772.073    1508.8901    4280.9631    -17635.59   -1070.4021    590.55474   -1906.0228    1781.8717    1324.7405    308.30062            0    3414.9128   -1426.1754    -21.72617    33.485184    33.485184    33.485184            0            0            0    0.6556442 
   71000    37679.359    310.09438   -41991.395     2772.073    1595.8472    4367.9202   -18706.973    -1071.358    591.87401   -1905.6523    1868.4584    1324.7405    308.30062            0    3501.4995   -1426.1684   -21.648996    33.524926    33.524926    33.524926            0            0            0   0.65331526 
   72000    37813.519    310.09438   -43945.248     2772.073    1686.9996    4459.0726   -19775.474   -1072.1832     593.3631   -1904.9815      1958.94    1324.7405    308.30062            0    3591.9811   -1426.1613   -21.572186    33.564669    33.564669    33.564669            0            0            0   0.65099733 
   73000    37947.997    310.09438   -45891.081     2772.073    1781.6164    4553.6894   -20843.931   -1072.8857    594.29872   -1904.7412    2053.3165    1324.7405    308.30062            0    3686.3576   -1426.1543    -21.49574    33.604411    33.604411    33.604411            0            0            0   0.64869036 
   74000    38082.793    310.09438   -47822.746     2772.073    1880.8938    4652.9668   -21907.713   -1073.4664    595.87825   -1903.7354    2151.5881    1324.7405    308.30062            0    3784.6292   -1426.1472   -21.419654    33.644153    33.644153    33.644153            0            0            0   0.64639428 
   75000    38217.909    310.09438   -49748.812     2772.073    1983.1945    4755.2675   -22973.178   -1073.9247    596.46371   -1903.6012    2253.7546    1324.7405    308.30062            0    3886.7957   -1426.1402   -21.343927    33.683895    33.683895    33.683895            0            0            0   0.64410902 
   76000    38353.343    310.09438   -51661.254     2772.073    2090.0821    4862.1551   -24034.266   -1074.2674    597.62542    -1902.775    2359.8161    1324.7405    308.30062            0    3992.8572   -1426.1331   -21.268557    33.723637    33.723637    33.723637            0            0            0   0.64183452 
   77000    38489.097    310.09438   -53562.041     2772.073    2201.1927    4973.2657   -25092.394   -1074.4968    599.00182   -1901.6209    2469.7725    1324.7405    308.30062            0    4102.8136    -1426.126   -21.193541    33.763379    33.763379    33.763379            0            0            0   0.63957072 
   78000    38625.172    310.09438   -55455.884     2772.073    2315.6208    5087.6938   -26151.077   -1074.6154    599.69004   -1901.0442    2583.6239    1324.7405    308.30062            0     4216.665   -1426.1189   -21.118878    33.803122    33.803122    33.803122            0            0            0   0.63731755 
   79000    38761.566    310.09438   -57338.107     2772.073    2434.2931    5206.3661   -27206.733   -1074.6246    600.61813   -1900.1183    2701.3703    1324.7405    308.30062            0    4334.4114   -1426.1118   -21.044564    33.842864    33.842864    33.842864            0            0            0   0.63507495 
   80000    38898.281    310.09438   -59209.179     2772.073    2557.1336    5329.2066   -28259.659    -1074.526    601.71155   -1898.9192    2823.0117    1324.7405    308.30062            0    4456.0528   -1426.1047   -20.970599    33.882606    33.882606    33.882606            0            0            0   0.63284287 
   81000    39035.318    310.09438   -61070.786     2772.073    2683.8228    5455.8958   -29311.096   -1074.3271    602.65847   -1897.7663     2948.548    1324.7405    308.30062            0    4581.5891   -1426.0976    -20.89698    33.922348    33.922348    33.922348            0            0            0   0.63062122 
   82000    39172.675    310.09438   -62925.624     2772.073    2813.8399    5585.9129   -30363.074   -1074.0263    602.93625   -1897.1805    3077.9793    1324.7405    308.30062            0    4711.0204   -1426.0905   -20.823706     33.96209     33.96209     33.96209            0            0            0   0.62840997 
   83000    39310.355    310.09438   -64765.822     2772.073    2948.7589    5720.8319   -31409.492   -1073.6283    604.12388   -1895.5877    3211.3055    1324.7405    308.30062            0    4844.3467   -1426.0833   -20.750773    34.001832    34.001832    34.001832            0            0            0   0.62620904 
   84000    39448.357    310.09438   -66595.879     2772.073    3087.7031    5859.7761   -32453.754   -1073.1348    605.34619   -1893.8648    3348.5268    1324.7405    308.30062            0    4981.5679   -1426.0762   -20.678181    34.041575    34.041575    34.041575            0            0            0   0.62401838 
   85000    39586.681    310.09438   -68417.213     2772.073    3230.4021    6002.4751   -33496.913    -1072.547    606.33403    -1892.282     3489.643    1324.7405    308.30062            0    5122.6841   -1426.0691   -20.605927    34.081317    34.081317    34.081317            0            0            0   0.62183793 
   86000    39725.329    310.09438   -70230.238     2772.073    3376.7827    6148.8557   -34539.256   -1071.8717    607.02099   -1890.9126    3634.6542    1324.7405    308.30062            0    5267.6953   -1426.0619   -20.534009    34.121059    34.121059    34.121059            0            0            0   0.61966762 
   87000      39864.3    310.09438   -72030.472     2772.073    3527.7626    6299.8356   -35577.235   -1071.1036    608.31956   -1888.8388    3783.5603    1324.7405    308.30062            0    5416.6014   -1426.0547   -20.462426    34.160801    34.160801    34.160801            0            0            0    0.6175074 
   88000    40003.594    310.09438   -73823.011     2772.073    3682.3265    6454.3995   -36614.786   -1070.2496    609.22111   -1887.0761    3936.3614    1324.7405    308.30062            0    5569.4025   -1426.0476   -20.391175    34.200543    34.200543    34.200543            0            0            0   0.61535721 
   89000    40143.213    310.09438   -75605.687     2772.073    3840.9256    6612.9986   -37650.168   -1069.3105    610.17788    -1885.173    4093.0575    1324.7405    308.30062            0    5726.0986   -1426.0404   -20.320254    34.240285    34.240285    34.240285            0            0            0   0.61321698 
   90000    40283.156    310.09438   -77380.234     2772.073     4003.219     6775.292   -38684.706   -1068.2903    610.85278   -1883.4707    4253.6486    1324.7405    308.30062            0    5886.6897   -1426.0332   -20.249662    34.280028    34.280028    34.280028            0            0            0   0.61108668 
   91000    40423.424    310.09438   -79146.133     2772.073    4169.3236    6941.3966   -39717.953    -1067.188    611.36195   -1881.8521    4418.1346    1324.7405    308.30062            0    6051.1757    -1426.026   -20.179396     34.31977     34.31977     34.31977            0            0            0   0.60896623 
   92000    40564.017    310.09438   -80901.155     2772.073    4339.7078    7111.7808   -40748.095   -1066.0112    612.18115   -1879.8489    4586.5156    1324.7405    308.30062            0    6219.5567   -1426.0188   -20.109455    34.359512    34.359512    34.359512            0            0            0   0.60685558 
   93000    40704.936    310.09438   -82647.811     2772.073    4513.8704    7285.9434   -41777.081    -1064.758     612.8074   -1877.9623    4758.7916    1324.7405    308.30062            0    6391.8327   -1426.0116   -20.039837    34.399254    34.399254    34.399254            0            0            0   0.60475467 
   94000     40846.18    310.09438   -84384.061     2772.073    4692.2431    7464.3161   -42803.239   -1063.4335    613.67737   -1875.7605    4934.9625    1324.7405    308.30062            0    6568.0036   -1426.0044    -19.97054    34.438996    34.438996    34.438996            0            0            0   0.60266344 
   95000    40987.752    310.09438   -86110.955     2772.073    4874.6244    7646.6974   -43827.359   -1062.0335    614.58559   -1873.4451    5115.0284    1324.7405    308.30062            0    6748.0695   -1425.9972   -19.901562    34.478738    34.478738    34.478738            0            0            0   0.60058185 
   96000     41129.65    310.09438   -87829.787     2772.073    5060.7559    7832.8289   -44850.442   -1060.5645    615.28001   -1871.2745    5298.9893    1324.7405    308.30062            0    6932.0304     -1425.99   -19.832901     34.51848     34.51848     34.51848            0            0            0   0.59850984 
   97000    41271.875    310.09438   -89539.168     2772.073    5250.9399    8023.0129   -45871.324   -1059.0262    616.06263   -1868.9463    5486.8451    1324.7405    308.30062            0    7119.8862   -1425.9828   -19.764556    34.558223    34.558223    34.558223            0            0            0   0.59644734 
   98000    41414.427    310.09438   -91238.723     2772.073    5445.2677    8217.3407   -46889.656   -1057.4199    617.02604   -1866.3694    5678.5959    1324.7405    308.30062            0     7311.637   -1425.9755   -19.696524    34.597965    34.597965    34.597965            0            0            0   0.59439431 
   99000    41557.307    310.09438   -92930.973     2772.073    5643.2206    8415.2936   -47907.446   -1055.7515    617.65758   -1864.0622    5874.2417    1324.7405    308.30062            0    7507.2828   -1425.9683   -19.628805    34.637707    34.637707    34.637707            0            0            0   0.59235069 
  100000    41700.516    310.09438   -94612.232     2772.073    5845.5883    8617.6613   -48921.643   -1054.0177     618.7434   -1861.2353    6073.7825    1324.7405    308.30062            0    7706.8236    -1425.961   -19.561395    34.677449    34.677449    34.677449            0            0            0   0.59031643 
  101000    41844.053    310.09438   -96284.368     2772.073    6051.9898    8824.0628   -49933.723   -1052.2233    619.90752   -1858.2695    6277.2182    1324.7405    308.30062            0    7910.2593   -1425.9538   -19.494294    34.717191    34.717191    34.717191            0            0            0   0.58829147 
  102000     41987.92    310.09438   -97950.206     2772.073    6261.8367    9033.9098   -50945.972   -1050.3696    620.56288   -1855.7533    6484.5489    1324.7405    308.30062            0      8117.59   -1425.9465   -19.427499    34.756933    34.756933    34.756933            0            0            0   0.58627577 
  103000    42132.115    310.09438   -99607.952     2772.073    6475.5203    9247.5933    -51956.88   -1048.4578    621.10161   -1853.2954    6695.7746    1324.7405    308.30062            0    8328.8157   -1425.9392   -19.361009    34.796676    34.796676    34.796676            0            0            0   0.58426926 
  104000    42276.641    310.09438   -101252.81     2772.073     6694.077      9466.15   -52962.426   -1046.4916    622.56427   -1849.8593    6910.8952    1324.7405    308.30062            0    8543.9363    -1425.932   -19.294822    34.836418    34.836418    34.836418            0            0            0    0.5822719 
  105000    42421.496    310.09438   -102893.32     2772.073    6915.6903    9687.7633   -53969.662   -1044.4698     623.1329   -1847.2616    7129.9108    1324.7405    308.30062            0    8762.9519   -1425.9247   -19.228937     34.87616     34.87616     34.87616            0            0            0   0.58028363 
  106000    42566.682    310.09438   -104524.33     2772.073    7141.4801    9913.5531    -54974.25   -1042.3931    623.92811   -1844.3824    7352.8214    1324.7405    308.30062            0    8985.8625   -1425.9174   -19.163351    34.915902    34.915902    34.915902            0            0            0   0.57830441 
  107000    42712.199    310.09438   -106147.67     2772.073    7371.0577    10143.131   -55977.699   -1040.2628    624.56262   -1841.6103    7579.6269    1324.7405    308.30062            0     9212.668   -1425.9101   -19.098063    34.955644    34.955644    34.955644            0            0            0   0.57633417 
  108000    42858.047    310.09438    -107758.6     2772.073    7605.4661    10377.539   -56975.966   -1038.0842    626.08448   -1837.9025    7810.3274    1324.7405    308.30062            0    9443.3685   -1425.9028   -19.033071    34.995386    34.995386    34.995386            0            0            0   0.57437287 
  109000    43004.227    310.09438   -109366.51     2772.073     7842.677     10614.75    -57976.92    -1035.857    626.46552    -1835.287    8044.9229    1324.7405    308.30062            0     9677.964   -1425.8955   -18.968374    35.035129    35.035129    35.035129            0            0            0   0.57242047 
  110000    43150.739    310.09438   -110962.81     2772.073    8084.5683    10856.641   -58973.283   -1033.5839    627.58593   -1831.8862    8283.4134    1324.7405    308.30062            0    9916.4545   -1425.8882    -18.90397    35.074871    35.074871    35.074871            0            0            0    0.5704769 
  111000    43297.583    310.09438   -112553.77     2772.073    8329.7842    11101.857   -59970.318   -1031.2638    628.08898   -1829.0557    8525.7988    1324.7405    308.30062            0     10158.84   -1425.8809   -18.839857    35.114613    35.114613    35.114613            0            0            0   0.56854212 
  112000     43444.76    310.09438    -114134.4     2772.073    8579.4288    11351.502   -60963.744   -1028.8993    629.08134   -1825.6915    8772.0792    1324.7405    308.30062            0     10405.12   -1425.8735   -18.776033    35.154355    35.154355    35.154355            0            0            0   0.56661608 
  113000     43592.27    310.09438   -115707.96     2772.073    8832.7967     11604.87   -61956.299   -1026.4924    629.85972   -1822.4989    9022.2546    1324.7405    308.30062            0    10655.296   -1425.8662   -18.712498    35.194097    35.194097    35.194097            0            0            0   0.56469873 
  114000    43740.114    310.09438   -117271.08     2772.073    9090.6446    11862.718   -62945.052   -1024.0444     631.1819   -1818.7214    9276.3249    1324.7405    308.30062            0    10909.366   -1425.8589   -18.649249    35.233839    35.233839    35.233839            0            0            0   0.56279002 
  115000    43888.292    310.09438   -118828.65     2772.073    9351.8968     12123.97   -63934.178   -1021.5536    631.97062   -1815.4345    9534.2902    1324.7405    308.30062            0    11167.331   -1425.8515   -18.586284    35.273582    35.273582    35.273582            0            0            0   0.56088991 
  116000    44036.803    310.09438   -120379.51     2772.073    9616.8255    12388.899   -64922.626   -1019.0243    632.50245    -1812.366    9796.1505    1324.7405    308.30062            0    11429.192   -1425.8442   -18.523603    35.313324    35.313324    35.313324            0            0            0   0.55899834 
  117000     44185.65    310.09438   -121920.13     2772.073     9886.223    12658.296   -65907.328   -1016.4548    633.56776   -1808.7239    10061.906    1324.7405    308.30062            0    11694.947   -1425.8368   -18.461203    35.353066    35.353066    35.353066            0            0            0   0.55711526 
  118000    44334.831    310.09438   -123451.65     2772.073    10159.853    12931.926   -66889.199   -1013.8478    634.93308   -1804.7442    10331.556    1324.7405    308.30062            0    11964.597   -1425.8295   -18.399084    35.392808    35.392808    35.392808            0            0            0   0.55524063 
  119000    44484.348    310.09438   -124976.98     2772.073     10437.07    13209.143   -67870.748   -1011.2029    635.95242   -1801.0726    10605.101    1324.7405    308.30062            0    12238.142   -1425.8221   -18.337242     35.43255     35.43255     35.43255            0            0            0   0.55337441 
  120000    44634.201    310.09438   -126496.22     2772.073     10717.86    13489.933   -68852.026   -1008.5233    636.61599   -1797.7221    10882.541    1324.7405    308.30062            0    12515.582   -1425.8148   -18.275678    35.472292    35.472292    35.472292            0            0            0   0.55151653 
  121000     44784.39    310.09438   -128005.56     2772.073    11003.095    13775.168   -69829.663   -1005.8097    637.79471   -1793.8223    11163.876    1324.7405    308.30062            0    12796.917   -1425.8074   -18.214388    35.512035    35.512035    35.512035            0            0            0   0.54966697 
  122000    44934.915    310.09438   -129507.35     2772.073    11292.254    14064.327   -70805.676   -1003.0663    638.97242   -1789.8939    11449.106    1324.7405    308.30062            0    13082.148      -1425.8   -18.153373    35.551777    35.551777    35.551777            0            0            0   0.54782566 
  123000    45085.778    310.09438   -131001.28     2772.073    11585.417     14357.49   -71779.755   -1000.2898     640.2269   -1785.8556    11738.232    1324.7405    308.30062            0    13371.273   -1425.7926    -18.09263    35.591519    35.591519    35.591519            0            0            0   0.54599258 
  124000    45236.977    310.09438   -132488.06     2772.073    11882.434    14654.507   -72752.491   -997.48289    641.40937   -1781.8588    12031.252    1324.7405    308.30062            0    13664.293   -1425.7852   -18.032157    35.631261    35.631261    35.631261            0            0            0   0.54416766 
  125000    45388.514    310.09438   -133968.29     2772.073    12183.177     14955.25    -73724.38   -994.64585    642.39277   -1778.0309    12328.167    1324.7405    308.30062            0    13961.208   -1425.7778   -17.971953    35.671003    35.671003    35.671003            0            0            0   0.54235086 
  126000     45540.39    310.09438   -135443.34     2772.073    12487.335    15259.408   -74696.624   -991.78381    642.87196   -1774.6823    12628.977    1324.7405    308.30062            0    14262.018   -1425.7704   -17.912018    35.710745    35.710745    35.710745            0            0            0   0.54054214 
  127000    45692.603    310.09438   -136908.81     2772.073    12795.939    15568.012   -75665.244   -988.89114    643.87068   -1770.7835    12933.681    1324.7405    308.30062            0    14566.723    -1425.763   -17.852348    35.750487    35.750487    35.750487            0            0            0   0.53874146 
  128000    45845.156    310.09438   -138369.35     2772.073    13107.918    15879.991   -76634.388   -985.97214    644.32292   -1767.4049    13242.281    1324.7405    308.30062            0    14875.323   -1425.7556   -17.792943     35.79023     35.79023     35.79023            0            0            0   0.53694876 
  129000    45998.048    310.09438   -139822.42     2772.073     13423.87    16195.943   -77601.738   -983.02528    644.82639   -1763.9471    13554.776    1324.7405    308.30062            0    15187.817   -1425.7482   -17.733802    35.829972    35.829972    35.829972            0            0            0   0.53516401 
  130000    46151.279    310.09438   -141266.54     2772.073    13744.152    16516.225   -78565.914   -980.05676    645.74254    -1760.055    13871.166    1324.7405    308.30062            0    15504.207   -1425.7408   -17.674922    35.869714    35.869714    35.869714            0            0            0   0.53338717 
  131000     46304.85    310.09438   -142702.91     2772.073    14068.496    16840.569   -79527.955   -977.06314    646.80083   -1755.9957    14191.451    1324.7405    308.30062            0    15824.492   -1425.7334   -17.616303    35.909456    35.909456    35.909456            0            0            0   0.53161817 
  132000    46458.761    310.09438   -144133.23     2772.073    14396.513    17168.586   -80489.374   -974.04931    647.61596   -1752.1593    14515.631    1324.7405    308.30062            0    16148.672    -1425.726   -17.557943    35.949198    35.949198    35.949198            0            0            0     0.529857 
  133000    46613.014    310.09438   -145556.16     2772.073    14728.529    17500.602    -81448.91   -971.00679    648.50765   -1748.2177    14843.706    1324.7405    308.30062            0    16476.747   -1425.7185    -17.49984     35.98894     35.98894     35.98894            0            0            0   0.52810359 
  134000    46767.607    310.09438   -146972.16     2772.073    15064.441    17836.514   -82406.958   -967.94757    649.38373    -1744.275    15175.675    1324.7405    308.30062            0    16808.716   -1425.7111   -17.441993    36.028683    36.028683    36.028683            0            0            0   0.52635791 
  135000    46922.541    310.09438   -148383.88     2772.073    15403.631    18175.704   -83365.926   -964.86914    649.62269   -1740.9501     15511.54    1324.7405    308.30062            0    17144.581   -1425.7037   -17.384401    36.068425    36.068425    36.068425            0            0            0   0.52461992 
  136000    47077.818    310.09438   -149785.75     2772.073    15747.431    18519.504   -84320.648   -961.76842    650.55504   -1736.9096      15851.3    1324.7405    308.30062            0    17484.341   -1425.6962   -17.327062    36.108167    36.108167    36.108167            0            0            0   0.52288957 
  137000    47233.436    310.09438    -151179.2     2772.073    16095.516    18867.589   -85272.385   -958.64986    651.85895   -1732.4797    16194.954    1324.7405    308.30062            0    17827.995   -1425.6888   -17.269975    36.147909    36.147909    36.147909            0            0            0   0.52116682 
  138000    47389.398    310.09438   -152569.15     2772.073    16446.714    19218.787   -86225.683   -955.51216    652.36228   -1728.8312    16542.504    1324.7405    308.30062            0    18175.545   -1425.6813   -17.213139    36.187651    36.187651    36.187651            0            0            0   0.51945163 
  139000    47545.702    310.09438   -153950.29     2772.073     16802.31    19574.383   -87175.564   -952.35711    653.35126   -1724.6797    16893.948    1324.7405    308.30062            0     18526.99   -1425.6739   -17.156551    36.227393    36.227393    36.227393            0            0            0   0.51774396 
  140000    47702.349    310.09438   -155322.49     2772.073    17162.347     19934.42   -88121.857   -949.18756    654.87169   -1719.9823    17249.288    1324.7405    308.30062            0    18882.329   -1425.6664   -17.100212    36.267136    36.267136    36.267136            0            0            0   0.51604376 
  141000     47859.34    310.09438    -156690.8     2772.073    17525.615    20297.688   -89069.261   -946.00148    655.71138   -1715.9491    17608.523    1324.7405    308.30062            0    19241.564    -1425.659   -17.044119    36.306878    36.306878    36.306878            0            0            0   0.51435101 
  142000    48016.675    310.09438   -158050.85     2772.073    17893.181    20665.254    -90013.64   -942.79801    656.93737   -1711.5121    17971.652    1324.7405    308.30062            0    19604.693   -1425.6515    -16.98827     36.34662     36.34662     36.34662            0            0            0   0.51266564 
  143000    48174.355    310.09438   -159406.19     2772.073    18264.189    21036.262   -90958.314   -939.58297    657.69795    -1707.529    18338.676    1324.7405    308.30062            0    19971.718    -1425.644   -16.932666    36.386362    36.386362    36.386362            0            0            0   0.51098764 
  144000     48332.38    310.09438   -160754.37     2772.073    18639.246    21411.319    -91900.93   -936.35439    658.60006   -1703.3909    18709.596    1324.7405    308.30062            0    20342.637   -1425.6365   -16.877304    36.426104    36.426104    36.426104            0            0            0   0.50931694 
  145000    48490.749    310.09438   -162095.96     2772.073    19018.225    21790.298    -92841.99   -933.10911    659.51165   -1699.2265     19084.41    1324.7405    308.30062            0    20717.451   -1425.6291   -16.822183    36.465846    36.465846    36.465846            0            0            0   0.50765353 
  146000    48649.464    310.09438   -163431.73     2772.073    19400.938    22173.011   -93782.218   -929.85426    660.25304   -1695.2228     19463.12    1324.7405    308.30062            0    21096.161   -1425.6216   -16.767302    36.505589    36.505589    36.505589            0            0            0   0.50599735 
  147000    48808.526    310.09438    -164760.6     2772.073    19787.666    22559.739    -94720.53   -926.58717    661.10174   -1691.0995    19845.724    1324.7405    308.30062            0    21478.765   -1425.6141    -16.71266    36.545331    36.545331    36.545331            0            0            0   0.50434836 
  148000    48967.933    310.09438   -166083.52     2772.073    20178.183    22950.256   -95657.804   -923.30476    661.82986   -1687.0815    20232.223    1324.7405    308.30062            0    21865.264   -1425.6066   -16.658254    36.585073    36.585073    36.585073            0            0            0   0.50270653 
  149000    49127.687    310.09438   -167398.82     2772.073    20572.908    23344.981   -96592.412   -920.01605    662.86482   -1682.7504    20622.618    1324.7405    308.30062            0    22255.659   -1425.5991   -16.604084    36.624815    36.624815    36.624815            0            0            0   0.50107182 
  150000    49287.788    310.09438   -168708.57     2772.073     20971.34    23743.413   -97526.305    -916.7156    663.69936   -1678.6079    21016.907    1324.7405    308.30062            0    22649.948   -1425.5916    -16.55015    36.664557    36.664557    36.664557            0            0            0   0.49944419 
  150532    49373.104    310.09438   -169401.53     2772.073    21185.209    23957.282    -98021.32   -914.95689    664.45689   -1676.0876    21228.256    1324.7405    308.30062            0    22861.297   -1425.5876   -16.521551      36.6857      36.6857      36.6857            0            0            0   0.49858117 
Loop time of 228.114 on 48 procs for 100000 steps with 3000 atoms

Performance: 37.876 ns/day, 0.634 hours/ns, 438.377 timesteps/s
54.3% CPU use with 48 MPI tasks x 1 OpenMP threads

MPI task timing breakdown:
Section |  min time  |  avg time  |  max time  |%varavg| %total
---------------------------------------------------------------
Pair    | 55.601     | 75.258     | 97.464     | 114.7 | 32.99
Bond    | 1.9776     | 3.3321     | 4.6955     |  32.3 |  1.46
Kspace  | 21.269     | 49.342     | 74.123     | 147.2 | 21.63
Neigh   | 0.03011    | 0.032922   | 0.035732   |   1.0 |  0.01
Comm    | 67.968     | 81.416     | 98.875     |  77.6 | 35.69
Output  | 0.11418    | 0.12448    | 0.13987    |   1.3 |  0.05
Modify  | 0.31554    | 0.38276    | 0.66562    |  12.7 |  0.17
Other   |            | 18.23      |            |       |  7.99

Nlocal:    62.5 ave 76 max 43 min
Histogram: 1 2 0 8 5 7 11 3 6 5
Nghost:    3891.79 ave 3926 max 3842 min
Histogram: 3 2 4 6 2 2 8 10 3 8
Neighs:    26959.5 ave 34601 max 19979 min
Histogram: 3 4 6 5 9 6 5 6 2 2

Total # of neighbors = 1294057
Ave neighs/atom = 431.352
Ave special neighs/atom = 8.4
Neighbor list builds = 19
Dangerous builds = 0
# >>>>>>>>>  Equilibration run <<<<<<<<<<<<<<<<<<<<<<<<<<<<<<<<<<

fix             NVT_equib all nvt temp ${simulationTemp} ${simulationTemp} 100
fix             NVT_equib all nvt temp 310 ${simulationTemp} 100
fix             NVT_equib all nvt temp 310 310 100

print           "Step Density Temperature Pressure KinEng PotEng TotEng" file Properties_equib_diEther.txt
Step Density Temperature Pressure KinEng PotEng TotEng
fix             PRINT_equib all print ${printfreq} "$(v_step) $(v_density) $(v_temp) $(v_press) $(v_pe) $(v_ke) $(v_etotal) $(v_enthalpy)" append Properties_equib_diEther.txt title ""
fix             PRINT_equib all print 1000 "$(v_step) $(v_density) $(v_temp) $(v_press) $(v_pe) $(v_ke) $(v_etotal) $(v_enthalpy)" append Properties_equib_diEther.txt title ""
# The 'print' and fix print' commands as used above will create a file named 'Properties_equib.txt' which allows you to quickly make plots to test for equilibration


run             ${NVT_equib}
run             100000
Ewald initialization ...
  using 12-bit tables for long-range coulomb (src/kspace.cpp:332)
  G vector (1/distance) = 0.12847
  estimated absolute RMS force accuracy = 0.0363016
  estimated relative force accuracy = 0.000109321
  KSpace vectors: actual max1d max3d = 61 3 171
                  kxmax kymax kzmax  = 3 3 3
Per MPI rank memory allocation (min/avg/max) = 20.46 | 20.74 | 20.93 Mbytes
Step Volume Temp Press KinEng PotEng TotEng Enthalpy E_vdwl E_coul E_pair E_bond E_angle E_dihed E_impro E_mol E_long E_tail Lx Ly Lz Xy Xz Yz Density 
  150532    49373.104    310.09438   -169403.09     2772.073    21185.906    23957.979   -98021.745   -914.95368     628.4726   -1675.7897    21228.654    1324.7405    308.30062            0    22861.695   -1389.3086   -16.521551      36.6857      36.6857      36.6857            0            0            0   0.49858117 
151000 0.49858116795318702108 378.92015623720101303 -762.44467243014798896 2392.568516115570219 3387.3375405684000725 5779.9060566839698367 5230.9031367084598969
  151000    49373.104    378.92016   -762.44467    3387.3375    2392.5685    5779.9061    5230.9031    -450.0081    535.56396   -1304.4488    1786.2118     1693.351     217.4545            0    3697.0173   -1390.0046   -16.521551      36.6857      36.6857      36.6857            0            0            0   0.49858117 
152000 0.49858116795318702108 295.71864403589302128 -5052.0173145016296985 1023.2161806706900506 2643.5618372375702165 3666.7780179082601535 29.042248061530198555
  152000    49373.104    295.71864   -5052.0173    2643.5618    1023.2162     3666.778    29.042248   -768.09279     532.5942   -1625.2117    1098.2626     1339.526    210.63926            0    2648.4278   -1389.7131   -16.521551      36.6857      36.6857      36.6857            0            0            0   0.49858117 
153000 0.49858116795318702108 317.02954101362098527 571.28265188939599284 1030.8521695638798974 2834.0695211588599705 3864.9216907227400952 4276.2772360621402186
  153000    49373.104    317.02954    571.28265    2834.0695    1030.8522    3864.9217    4276.2772   -737.23223    529.65899   -1595.7954    991.66907    1388.0985    246.88008            0    2626.6476   -1388.2222   -16.521551      36.6857      36.6857      36.6857            0            0            0   0.49858117 
154000 0.49858116795318702108 319.49072440258601091 835.21271275600895478 978.00911824534500738 2856.0711453808398801 3834.0802636261901171 4435.4802532703197357
  154000    49373.104    319.49072    835.21271    2856.0711    978.00912    3834.0803    4435.4803   -803.32303    535.94524   -1654.3668    1000.8895    1411.1579     220.3285            0    2632.3759    -1386.989   -16.521551      36.6857      36.6857      36.6857            0            0            0   0.49858117 
155000 0.49858116795318702108 301.8175029256320272 245.94200604998698623 945.14066710910003621 2698.0822773138997945 3643.2229444230001718 3820.3149805385000946
  155000    49373.104     301.8175    245.94201    2698.0823    945.14067    3643.2229     3820.315   -784.68503    538.00805   -1634.0228    971.65734    1361.6585    245.84768            0    2579.1635   -1387.3458   -16.521551      36.6857      36.6857      36.6857            0            0            0   0.49858117 
156000 0.49858116795318702108 314.61936875369798372 182.08795831451200797 951.0104063124960021 2812.5239083407300313 3763.5343146532300125 3894.6478556376800952
  156000    49373.104    314.61937    182.08796    2812.5239    951.01041    3763.5343    3894.6479   -777.75576    542.64778   -1622.4835    966.11625    1363.3396    244.03807            0    2573.4939   -1387.3755   -16.521551      36.6857      36.6857      36.6857            0            0            0   0.49858117 
157000 0.49858116795318702108 313.89101715683898419 -1878.3488166832798925 966.89599030296903948 2806.012846138939949 3772.908836441909898 2420.3923557314501522
  157000    49373.104    313.89102   -1878.3488    2806.0128    966.89599    3772.9088    2420.3924   -800.44901    537.02083    -1651.393    980.48811    1410.4146    227.38631            0     2618.289   -1387.9648   -16.521551      36.6857      36.6857      36.6857            0            0            0   0.49858117 
158000 0.49858116795318702108 306.95354610822801078 -591.62496893358797934 909.59001718313504625 2743.9956751525101026 3653.5856923356500374 3227.5825379825500931
  158000    49373.104    306.95355   -591.62497    2743.9957    909.59002    3653.5857    3227.5825   -821.64569    542.54093   -1667.8483    946.83433     1391.892    238.71194            0    2577.4383   -1388.7435   -16.521551      36.6857      36.6857      36.6857            0            0            0   0.49858117 
159000 0.49858116795318702108 308.73974783268397459 -175.46756116139499682 976.90863860874299007 2759.9633349792197805 3736.8719735879599284 3610.5254898076400423
  159000    49373.104    308.73975   -175.46756    2759.9633    976.90864     3736.872    3610.5255   -792.53518    538.33028   -1642.2155    949.88975    1417.7197    251.51472            0    2619.1242   -1388.0106   -16.521551      36.6857      36.6857      36.6857            0            0            0   0.49858117 
160000 0.49858116795318702108 313.49823247371102752 -440.1258258318690082 898.1810076762250219 2802.5015673625998716 3700.682575038829782 3383.7672993793198657
  160000    49373.104    313.49823   -440.12583    2802.5016    898.18101    3700.6826    3383.7673   -789.29305    548.00433   -1629.7263    949.09181    1332.9117     245.9038            0    2527.9073   -1388.4376   -16.521551      36.6857      36.6857      36.6857            0            0            0   0.49858117 
161000 0.49858116795318702108 308.12799324633499509 -893.55121254321397828 894.37405031317302928 2754.4945858460700947 3648.8686361592399408 3005.4616552037500696
  161000    49373.104    308.12799   -893.55121    2754.4946    894.37405    3648.8686    3005.4617   -775.21733    543.84418   -1617.8745    945.56295    1321.1931    245.49255            0    2512.2486   -1386.5013   -16.521551      36.6857      36.6857      36.6857            0            0            0   0.49858117 
162000 0.49858116795318702108 315.50500094752101177 -196.58307889348799335 918.04073968038903786 2820.4409724712400021 3738.4817121516298357 3596.9308715033398585
  162000    49373.104      315.505   -196.58308     2820.441    918.04074    3738.4817    3596.9309   -814.74329    549.98907    -1652.595    971.03152    1348.4647    251.13961            0    2570.6358   -1387.8408   -16.521551      36.6857      36.6857      36.6857            0            0            0   0.49858117 
163000 0.49858116795318702108 304.51268665636200694 -190.04519000599299261 892.5834182098369638 2722.1757357366100223 3614.7591539464501693 3477.9159599241997967
  163000    49373.104    304.51269   -190.04519    2722.1757    892.58342    3614.7592     3477.916   -814.05388    540.48624   -1662.2759    923.09562    1351.7029    280.06083            0    2554.8593   -1388.7083   -16.521551      36.6857      36.6857      36.6857            0            0            0   0.49858117 
164000 0.49858116795318702108 304.33863465827300843 133.90247900239501178 913.14549381695996999 2720.6198067171799266 3633.7653005341398966 3730.1825943030999042
  164000    49373.104    304.33863    133.90248    2720.6198    913.14549    3633.7653    3730.1826   -809.98596    540.02582   -1658.5467    937.12305    1369.7467    264.82239            0    2571.6922   -1388.5865   -16.521551      36.6857      36.6857      36.6857            0            0            0   0.49858117 
165000 0.49858116795318702108 311.88918475776097239 430.97982832444301948 935.43424848904601276 2788.1175668203100031 3723.5518153093498768 4033.8814598808298797
  165000    49373.104    311.88918    430.97983    2788.1176    935.43425    3723.5518    4033.8815   -800.76201    541.69706   -1648.5372    980.18629    1348.4234    255.36174            0    2583.9715   -1389.4723   -16.521551      36.6857      36.6857      36.6857            0            0            0   0.49858117 
166000 0.49858116795318702108 308.76045187663697789 -1423.3211725071801084 957.18801865659804662 2760.1484177312599968 3717.3364363878599761 2692.4653761982499418
  166000    49373.104    308.76045   -1423.3212    2760.1484    957.18802    3717.3364    2692.4654   -819.14643    540.95782   -1666.1294    1004.7462    1356.1245    262.44677            0    2623.3174   -1387.9408   -16.521551      36.6857      36.6857      36.6857            0            0            0   0.49858117 
167000 0.49858116795318702108 308.84487499122502641 204.24897514629898865 884.30439331790296364 2760.9031138872501288 3645.2075072051497955 3792.2782230380998953
  167000    49373.104    308.84487    204.24898    2760.9031    884.30439    3645.2075    3792.2782   -834.75702    544.52926   -1678.8023      933.427    1367.2646    262.41503            0    2563.1067   -1388.5745   -16.521551      36.6857      36.6857      36.6857            0            0            0   0.49858117 
168000 0.49858116795318702108 313.92106547154799046 -66.427272446597598332 893.27416376558801403 2806.2814615260299433 3699.55562529161989 3651.7242640691001725
  168000    49373.104    313.92107   -66.427272    2806.2815    893.27416    3699.5556    3651.7243   -860.16958    533.57047   -1715.2948    958.46287    1371.1974    278.90872            0     2608.569   -1388.6957   -16.521551      36.6857      36.6857      36.6857            0            0            0   0.49858117 
169000 0.49858116795318702108 314.00881085256497727 -248.89886637011400694 810.31556576936998226 2807.065856914449796 3617.381422683819892 3438.1602813251301995
  169000    49373.104    314.00881   -248.89887    2807.0659    810.31557    3617.3814    3438.1603    -829.3804    534.47188   -1684.0642    921.37733    1293.8415    279.16086            0    2494.3797   -1389.1556   -16.521551      36.6857      36.6857      36.6857            0            0            0   0.49858117 
170000 0.49858116795318702108 301.09322931467198714 244.46994912549800461 954.22739029027502511 2691.6076700604598955 3645.8350603507301457 3821.8671329316498486
  170000    49373.104    301.09323    244.46995    2691.6077    954.22739    3645.8351    3821.8671   -825.10877      549.885   -1663.2957    948.23166    1373.7772    295.51419            0    2617.5231   -1388.0719   -16.521551      36.6857      36.6857      36.6857            0            0            0   0.49858117 
171000 0.49858116795318702108 310.40016550125301364 -909.44468839105104507 955.98758158962095877 2774.8065546105499379 3730.7941362001702146 3075.9429613712900391
  171000    49373.104    310.40017   -909.44469    2774.8066    955.98758    3730.7941     3075.943   -821.78633    549.45827   -1659.9588    955.34586    1387.2203     273.3802            0    2615.9464   -1387.6307   -16.521551      36.6857      36.6857      36.6857            0            0            0   0.49858117 
172000 0.49858116795318702108 315.02121913387901486 750.6807578470450153 943.61806782685005146 2816.1162294566001947 3759.7342972834499051 4300.2665390707497863
  172000    49373.104    315.02122    750.68076    2816.1162    943.61807    3759.7343    4300.2665   -814.59219    544.56771   -1658.4913    943.33363    1373.2269    285.54883            0    2602.1094   -1388.4668   -16.521551      36.6857      36.6857      36.6857            0            0            0   0.49858117 
173000 0.49858116795318702108 309.67538754290899305 -274.40671007855701191 948.41674872155999765 2768.3274387692199525 3716.7441874907799502 3519.1559682514298402
  173000    49373.104    309.67539   -274.40671    2768.3274    948.41675    3716.7442     3519.156   -789.39752    543.84724   -1632.2941    921.42058    1380.5493    278.74096            0    2580.7109   -1386.7438   -16.521551      36.6857      36.6857      36.6857            0            0            0   0.49858117 
174000 0.49858116795318702108 308.89877104595501578 -265.86955127626998774 894.77125490362902838 2761.3849149381298957 3656.1561698417599473 3464.7151836807302061
  174000    49373.104    308.89877   -265.86955    2761.3849    894.77125    3656.1562    3464.7152   -800.48678    539.08671   -1649.1612    922.40912    1338.3545    283.16887            0    2543.9325   -1387.7612   -16.521551      36.6857      36.6857      36.6857            0            0            0   0.49858117 
175000 0.49858116795318702108 311.36204947336699433 -403.5816136753110186 888.42988869771500049 2783.4052676501701171 3671.8351563478900061 3381.2337627412298389
  175000    49373.104    311.36205   -403.58161    2783.4053    888.42989    3671.8352    3381.2338   -821.81136    539.18863   -1670.3218    921.31432    1348.6213    288.81604            0    2558.7517    -1387.699   -16.521551      36.6857      36.6857      36.6857            0            0            0   0.49858117 
176000 0.49858116795318702108 318.05133598795100625 -143.6710094034349936 888.6036699967489767 2843.2038055677098782 3731.8074755644602192 3628.3562921141101469
  176000    49373.104    318.05134   -143.67101    2843.2038    888.60367    3731.8075    3628.3563   -798.28951    548.03471   -1638.4846    902.74753    1349.5059    274.83487            0    2527.0883   -1388.2298   -16.521551      36.6857      36.6857      36.6857            0            0            0   0.49858117 
177000 0.49858116795318702108 309.67522812758897999 918.41357031756001561 922.67236687293802788 2768.3260136840399355 3690.9983805569800097 4352.3076533234798262
  177000    49373.104    309.67523    918.41357     2768.326    922.67237    3690.9984    4352.3077   -789.14636    546.86239   -1630.6379    921.57921    1333.9993    297.73179            0    2553.3103    -1388.354   -16.521551      36.6857      36.6857      36.6857            0            0            0   0.49858117 
178000 0.49858116795318702108 313.95188910362702472 739.64019356355595392 947.64157020420202571 2806.5570078234700304 3754.1985780276700098 4286.7809944060199996
  178000    49373.104    313.95189    739.64019     2806.557    947.64157    3754.1986     4286.781   -814.80674    541.75652   -1661.0256    952.39628    1381.6241     274.6468            0    2608.6672   -1387.9754   -16.521551      36.6857      36.6857      36.6857            0            0            0   0.49858117 
179000 0.49858116795318702108 310.14708144980801308 -1537.1764581177699256 937.6801503840249552 2772.5441225539098014 3710.2242729379299817 2603.3710224136098077
  179000    49373.104    310.14708   -1537.1765    2772.5441    937.68015    3710.2243     2603.371    -782.7251    547.25081   -1623.4209    947.63687     1318.058    295.40614            0     2561.101   -1387.9466   -16.521551      36.6857      36.6857      36.6857            0            0            0   0.49858117 
180000 0.49858116795318702108 308.96577822888002629 -594.31314143156396312 934.70885322093499781 2761.9839222553000582 3696.6927754762300538 3268.7539861791801741
  180000    49373.104    308.96578   -594.31314    2761.9839    934.70885    3696.6928     3268.754   -774.98563    554.53635   -1606.7485    921.35012    1330.2045    289.90275            0    2541.4574   -1386.2992   -16.521551      36.6857      36.6857      36.6857            0            0            0   0.49858117 
181000 0.49858116795318702108 314.00850134638500322 886.16725273009694774 991.03157958495694402 2807.0630900996297896 3798.0946696845799124 4436.1847855022197109
  181000    49373.104     314.0085    886.16725    2807.0631    991.03158    3798.0947    4436.1848   -732.25859    546.45138    -1573.328    944.18196    1336.1501    284.02748            0    2564.3596   -1387.5208   -16.521551      36.6857      36.6857      36.6857            0            0            0   0.49858117 
182000 0.49858116795318702108 310.63543712003598785 -877.66472000011901855 874.32416407820903714 2776.9097533277799812 3651.2339174059898141 3019.2661019528700308
  182000    49373.104    310.63544   -877.66472    2776.9098    874.32416    3651.2339    3019.2661   -786.60541    545.39673   -1629.8475    884.59646    1336.8286    282.74658            0    2504.1717   -1388.6388   -16.521551      36.6857      36.6857      36.6857            0            0            0   0.49858117 
183000 0.49858116795318702108 301.32199513144200864 630.67596608978396944 936.48369262133201119 2693.6527104901902021 3630.1364031115199396 4084.2584652908999487
  183000    49373.104      301.322    630.67597    2693.6527    936.48369    3630.1364    4084.2585   -729.54517    554.13786   -1564.3748     894.0458    1319.3624    287.45034            0    2500.8585   -1388.9675   -16.521551      36.6857      36.6857      36.6857            0            0            0   0.49858117 
184000 0.49858116795318702108 313.35741155911398437 -289.59830038327100965 921.64011692865494751 2801.2427059305600778 3722.8828228592201413 3514.3558066973600944
  184000    49373.104    313.35741    -289.5983    2801.2427    921.64012    3722.8828    3514.3558   -765.58272     557.4289   -1596.1989    932.86108    1318.6012    266.37675            0     2517.839   -1388.0451   -16.521551      36.6857      36.6857      36.6857            0            0            0   0.49858117 
185000 0.49858116795318702108 305.26467611994900153 -95.278192240409097735 960.93118162540599769 2728.8981074505300057 3689.8292890759298643 3621.2236477206702148
  185000    49373.104    305.26468   -95.278192    2728.8981    960.93118    3689.8293    3621.2236   -743.15988    552.74084   -1577.3324    927.03794     1341.765    269.46061            0    2538.2635   -1386.9133   -16.521551      36.6857      36.6857      36.6857            0            0            0   0.49858117 
186000 0.49858116795318702108 308.76359678574198142 122.02249866900399411 974.90849925687302857 2760.1765314868898713 3735.0850307437699485 3822.9480724756599557
  186000    49373.104     308.7636     122.0225    2760.1765     974.9085     3735.085    3822.9481   -728.18614    552.43171   -1564.1951    883.76674    1367.1534    288.18346            0    2539.1036   -1388.4407   -16.521551      36.6857      36.6857      36.6857            0            0            0   0.49858117 
187000 0.49858116795318702108 319.89405699366898261 -177.62075313351598993 954.55023676077303207 2859.6767166459799228 3814.2269534067600034 3686.3300506613500147
  187000    49373.104    319.89406   -177.62075    2859.6767    954.55024     3814.227    3686.3301   -761.96279    545.77566   -1604.8374    898.90236    1376.9076    283.57767            0    2559.3876   -1388.6502   -16.521551      36.6857      36.6857      36.6857            0            0            0   0.49858117 
188000 0.49858116795318702108 312.50357923551001704 -158.18105669957398618 950.91441925137803537 2793.6099151288999565 3744.5243343802699201 3630.6251031926699397
[...]
253000 0.49858116795318702108 313.3112057069660068 -786.84068463472794974 993.28657036531194535 2800.8296510560699062 3794.1162214213800326 3227.546804596489892
  253000    49373.104    313.31121   -786.84068    2800.8297    993.28657    3794.1162    3227.5468   -730.03672    556.83261   -1561.7599    908.64402    1355.2861    291.11639            0    2555.0465   -1388.5558   -16.521551      36.6857      36.6857      36.6857            0            0            0   0.49858117 
254000 0.49858116795318702108 308.09308457450998731 -766.78128343941398271 1020.8999747405299559 2754.1825215427597868 3775.0824962832898564 3222.9569731957499243
254000 0.49858116795318702108 308.09308457450998731 -766.78128343941398271 1020.8999747405299559 2754.1825215427597868 3775.0824962832898564 3222.9569731957499243
  254000    49373.104    308.09308   -766.78128    2754.1825       1020.9    3775.0825     3222.957   -709.71118    559.57446   -1539.3799    905.65462    1363.3988    291.22652            0    2560.2799   -1389.2432   -16.521551      36.6857      36.6857      36.6857            0            0            0   0.49858117 
255000 0.49858116795318702108 314.07316807206001386 -29.166976946662398262 1075.7029193252599271 2807.6411750177799149 3883.3440943430400694 3862.3422353366199786
255000 0.49858116795318702108 314.07316807206001386 -29.166976946662398262 1075.7029193252599271 2807.6411750177799149 3883.3440943430400694 3862.3422353366199786
  255000    49373.104    314.07317   -29.166977    2807.6412    1075.7029    3883.3441    3862.3422   -710.92781    561.04397   -1537.6793    898.16629    1414.0047    301.21122            0    2613.3822   -1387.7955   -16.521551      36.6857      36.6857      36.6857            0            0            0   0.49858117 
256000 0.49858116795318702108 310.93735690256897897 -234.2665685374979887 1060.8533787900998959 2779.6087499284699334 3840.4621287185700567 3671.7770623388701097
256000 0.49858116795318702108 310.93735690256897897 -234.2665685374979887 1060.8533787900998959 2779.6087499284699334 3840.4621287185700567 3671.7770623388701097
  256000    49373.104    310.93736   -234.26657    2779.6087    1060.8534    3840.4621    3671.7771   -736.27063    560.08887    -1564.213    933.53847    1382.7034    308.82449            0    2625.0664   -1388.0312   -16.521551      36.6857      36.6857      36.6857            0            0            0   0.49858117 
257000 0.49858116795318702108 312.18220545355399054 -117.77471107064499733 997.27887965148397598 2790.7370104859101048 3788.0158901373902154 3703.2114936807001868
257000 0.49858116795318702108 312.18220545355399054 -117.77471107064499733 997.27887965148397598 2790.7370104859101048 3788.0158901373902154 3703.2114936807001868
  257000    49373.104    312.18221   -117.77471     2790.737    997.27888    3788.0159    3703.2115   -760.86858    557.40383   -1592.3011    949.32801    1345.0173    295.23467            0      2589.58   -1388.8364   -16.521551      36.6857      36.6857      36.6857            0            0            0   0.49858117 
258000 0.49858116795318702108 308.22454611922597678 626.80728674977194714 1041.6337099509798918 2755.3577153618998636 3796.9914253128799828 4248.3278214224301337
258000 0.49858116795318702108 308.22454611922597678 626.80728674977194714 1041.6337099509798918 2755.3577153618998636 3796.9914253128799828 4248.3278214224301337
  258000    49373.104    308.22455    626.80729    2755.3577    1041.6337    3796.9914    4248.3278   -729.48095    559.98855   -1558.3195    950.34883    1342.8157    306.78871            0    2599.9532   -1388.8271   -16.521551      36.6857      36.6857      36.6857            0            0            0   0.49858117 
259000 0.49858116795318702108 306.9257644337100146 -844.48457305887302482 1009.9543294963400513 2743.7473222805801925 3753.701651776919789 3145.6254027739901176
259000 0.49858116795318702108 306.9257644337100146 -844.48457305887302482 1009.9543294963400513 2743.7473222805801925 3753.701651776919789 3145.6254027739901176
  259000    49373.104    306.92576   -844.48457    2743.7473    1009.9543    3753.7017    3145.6254   -754.40438    547.34292   -1595.0477    971.19963    1322.1685    311.63396            0    2605.0021   -1387.9863   -16.521551      36.6857      36.6857      36.6857            0            0            0   0.49858117 
260000 0.49858116795318702108 315.43311476432000973 637.20231068671103003 969.63557934770994962 2819.7983495782700629 3789.4339289259901307 4248.2553251948302204
260000 0.49858116795318702108 315.43311476432000973 637.20231068671103003 969.63557934770994962 2819.7983495782700629 3789.4339289259901307 4248.2553251948302204
  260000    49373.104    315.43311    637.20231    2819.7983    969.63558    3789.4339    4248.2553   -737.83137    552.31674   -1574.3127    898.40236    1338.5359    307.01005            0    2543.9483   -1388.7981   -16.521551      36.6857      36.6857      36.6857            0            0            0   0.49858117 
261000 0.49858116795318702108 303.49921011939500204 -347.89928235384502386 962.87677326531104427 2713.1158135771697744 3675.9925868424797955 3425.4855943011398267
261000 0.49858116795318702108 303.49921011939500204 -347.89928235384502386 962.87677326531104427 2713.1158135771697744 3675.9925868424797955 3425.4855943011398267
  261000    49373.104    303.49921   -347.89928    2713.1158    962.87677    3675.9926    3425.4856   -730.10706    563.83314   -1554.5856    923.00739    1291.5494    302.90559            0    2517.4624   -1388.3117   -16.521551      36.6857      36.6857      36.6857            0            0            0   0.49858117 
262000 0.49858116795318702108 303.48461386999298384 -354.62091674654300277 1045.470447941070006 2712.9853311450901856 3758.4557790861599642 3503.1088328510800238
262000 0.49858116795318702108 303.48461386999298384 -354.62091674654300277 1045.470447941070006 2712.9853311450901856 3758.4557790861599642 3503.1088328510800238
  262000    49373.104    303.48461   -354.62092    2712.9853    1045.4704    3758.4558    3503.1088   -727.52434    557.56868   -1558.2046    928.11608    1361.2524    314.30654            0     2603.675   -1388.2489   -16.521551      36.6857      36.6857      36.6857            0            0            0   0.49858117 
263000 0.49858116795318702108 312.47552232479000622 -326.47492386203299475 1043.7049843848599266 2793.3591017968701635 3837.0640861817300902 3601.9838331743198978
263000 0.49858116795318702108 312.47552232479000622 -326.47492386203299475 1043.7049843848599266 2793.3591017968701635 3837.0640861817300902 3601.9838331743198978
  263000    49373.104    312.47552   -326.47492    2793.3591     1043.705    3837.0641    3601.9838   -675.24646    553.88894   -1509.7976    945.81188    1306.5907    301.10001            0    2553.5026   -1388.4401   -16.521551      36.6857      36.6857      36.6857            0            0            0   0.49858117 
264000 0.49858116795318702108 305.23035821723897243 -620.25022091815299063 942.43657361221005431 2728.5913242977999289 3671.0278979100098695 3224.4129569016599817
264000 0.49858116795318702108 305.23035821723897243 -620.25022091815299063 942.43657361221005431 2728.5913242977999289 3671.0278979100098695 3224.4129569016599817
  264000    49373.104    305.23036   -620.25022    2728.5913    942.43657    3671.0279     3224.413   -708.06673    553.49425   -1542.0055    904.21637    1288.1025    292.12315            0     2484.442    -1387.433   -16.521551      36.6857      36.6857      36.6857            0            0            0   0.49858117 
265000 0.49858116795318702108 306.58057895112000324 -1058.558117242939943 960.01992626299397671 2740.6615541460801069 3700.6814804090699909 2938.4602749308501188
265000 0.49858116795318702108 306.58057895112000324 -1058.558117242939943 960.01992626299397671 2740.6615541460801069 3700.6814804090699909 2938.4602749308501188
  265000    49373.104    306.58058   -1058.5581    2740.6616    960.01993    3700.6815    2938.4603   -719.68739    558.33882   -1549.5318    881.08429    1328.3888     300.0786            0    2509.5517   -1388.1832   -16.521551      36.6857      36.6857      36.6857            0            0            0   0.49858117 
266000 0.49858116795318702108 310.47578669399501905 -291.27193016940100279 963.91411780702696888 2775.4825664320901524 3739.3966842391100727 3529.6645607786399523
266000 0.49858116795318702108 310.47578669399501905 -291.27193016940100279 963.91411780702696888 2775.4825664320901524 3739.3966842391100727 3529.6645607786399523
  266000    49373.104    310.47579   -291.27193    2775.4826    963.91412    3739.3967    3529.6646   -712.67113    549.36122   -1552.2572    916.85828    1302.3897    296.92326            0    2516.1713   -1388.9473   -16.521551      36.6857      36.6857      36.6857            0            0            0   0.49858117 
267000 0.49858116795318702108 315.89497520367098105 -384.10516287729501528 980.00491747292699074 2823.9271275779801726 3803.9320450509098919 3527.3547882052698696
267000 0.49858116795318702108 315.89497520367098105 -384.10516287729501528 980.00491747292699074 2823.9271275779801726 3803.9320450509098919 3527.3547882052698696
  267000    49373.104    315.89498   -384.10516    2823.9271    980.00492     3803.932    3527.3548   -724.66224    545.67043   -1567.1012    890.28159    1346.4182    310.40629            0    2547.1061   -1388.1094   -16.521551      36.6857      36.6857      36.6857            0            0            0   0.49858117 
268000 0.49858116795318702108 310.75978713916902052 484.53521505222397536 949.75090604884394452 2778.0213740242497806 3727.7722800730898598 4076.6648063291499966
268000 0.49858116795318702108 310.75978713916902052 484.53521505222397536 949.75090604884394452 2778.0213740242497806 3727.7722800730898598 4076.6648063291499966
  268000    49373.104    310.75979    484.53522    2778.0214    949.75091    3727.7723    4076.6648   -723.39729    555.57393   -1556.0211     858.0116    1344.3652    303.39521            0     2505.772   -1388.1977   -16.521551      36.6857      36.6857      36.6857            0            0            0   0.49858117 
269000 0.49858116795318702108 312.64985204555699738 557.16944988200395983 967.20924373102002392 2794.9175135041200519 3762.1267572351398485 4163.32000569920001
269000 0.49858116795318702108 312.64985204555699738 557.16944988200395983 967.20924373102002392 2794.9175135041200519 3762.1267572351398485 4163.32000569920001
  269000    49373.104    312.64985    557.16945    2794.9175    967.20924    3762.1268      4163.32   -715.37851    560.55612   -1543.0875     885.2083    1329.0952    295.99322            0    2510.2967   -1388.2651   -16.521551      36.6857      36.6857      36.6857            0            0            0   0.49858117 
270000 0.49858116795318702108 318.55408555829200168 493.66218631905201164 1014.6204565064699636 2847.6981098824498986 3862.3185663889198622 4217.7830237728503562
270000 0.49858116795318702108 318.55408555829200168 493.66218631905201164 1014.6204565064699636 2847.6981098824498986 3862.3185663889198622 4217.7830237728503562
  270000    49373.104    318.55409    493.66219    2847.6981    1014.6205    3862.3186     4217.783   -728.38261    555.36723   -1561.0095     911.6259    1353.8324    310.17165            0    2575.6299   -1387.9941   -16.521551      36.6857      36.6857      36.6857            0            0            0   0.49858117 
271000 0.49858116795318702108 310.18177547370299862 -590.5689417635760492 983.9935644877540426 2772.8542680229202233 3756.8478325106698321 3331.6050769391099493
271000 0.49858116795318702108 310.18177547370299862 -590.5689417635760492 983.9935644877540426 2772.8542680229202233 3756.8478325106698321 3331.6050769391099493
  271000    49373.104    310.18178   -590.56894    2772.8543    983.99356    3756.8478    3331.6051   -744.59529    554.26338   -1579.4309    891.06383    1361.7912    310.56942            0    2563.4245    -1389.099   -16.521551      36.6857      36.6857      36.6857            0            0            0   0.49858117 
272000 0.49858116795318702108 310.93175266602702322 67.886566227087996594 969.14590223404195513 2779.5586511398100811 3748.704553373860108 3797.5866879515601795
272000 0.49858116795318702108 310.93175266602702322 67.886566227087996594 969.14590223404195513 2779.5586511398100811 3748.704553373860108 3797.5866879515601795
  272000    49373.104    310.93175    67.886566    2779.5587     969.1459    3748.7046    3797.5867   -734.68345    554.64696   -1567.7142    902.25279    1328.6116    305.99562            0    2536.8601   -1387.6777   -16.521551      36.6857      36.6857      36.6857            0            0            0   0.49858117 
273000 0.49858116795318702108 300.61836439212800087 -872.38897345207203671 992.20690936585697273 2687.3626391420598338 3679.5695485079199898 3051.4005664189198797
273000 0.49858116795318702108 300.61836439212800087 -872.38897345207203671 992.20690936585697273 2687.3626391420598338 3679.5695485079199898 3051.4005664189198797
  273000    49373.104    300.61836   -872.38897    2687.3626    992.20691    3679.5695    3051.4006   -749.23878    557.99475   -1580.1279    923.48965    1366.1752    282.66993            0    2572.3348   -1388.8838   -16.521551      36.6857      36.6857      36.6857            0            0            0   0.49858117 
274000 0.49858116795318702108 309.352668519258998 -92.265238194135804406 1070.5036139690500931 2765.4425084062600035 3835.9461223753201011 3769.5099768916497851
274000 0.49858116795318702108 309.352668519258998 -92.265238194135804406 1070.5036139690500931 2765.4425084062600035 3835.9461223753201011 3769.5099768916497851
  274000    49373.104    309.35267   -92.265238    2765.4425    1070.5036    3835.9461      3769.51   -710.79165    558.51668   -1540.3533    909.62509    1390.6381    310.59372            0    2610.8569   -1388.0783   -16.521551      36.6857      36.6857      36.6857            0            0            0   0.49858117 
275000 0.49858116795318702108 314.09957885661799537 -194.96899070998699699 1040.7279454765100581 2807.8772728883700438 3848.6052183648798746 3708.2166117223800939
275000 0.49858116795318702108 314.09957885661799537 -194.96899070998699699 1040.7279454765100581 2807.8772728883700438 3848.6052183648798746 3708.2166117223800939
  275000    49373.104    314.09958   -194.96899    2807.8773    1040.7279    3848.6052    3708.2166   -714.48062    555.40522   -1546.3915    896.82164    1373.2368    317.06097            0    2587.1194   -1387.3161   -16.521551      36.6857      36.6857      36.6857            0            0            0   0.49858117 
276000 0.49858116795318702108 310.82206835087799845 -1729.8243636355700801 982.2705381757430132 2778.578133761150184 3760.8486719368897866 2515.2781262685998627
276000 0.49858116795318702108 310.82206835087799845 -1729.8243636355700801 982.2705381757430132 2778.578133761150184 3760.8486719368897866 2515.2781262685998627
  276000    49373.104    310.82207   -1729.8244    2778.5781    982.27054    3760.8487    2515.2781   -749.52234    554.31381    -1582.908    932.46963    1333.8029    298.90596            0    2565.1785   -1387.6995   -16.521551      36.6857      36.6857      36.6857            0            0            0   0.49858117 
277000 0.49858116795318702108 312.5160086221520146 -586.3500386488390177 1013.773704959579959 2793.721027001100083 3807.4947319606799283 3385.2898232163602188
277000 0.49858116795318702108 312.5160086221520146 -586.3500386488390177 1013.773704959579959 2793.721027001100083 3807.4947319606799283 3385.2898232163602188
  277000    49373.104    312.51601   -586.35004     2793.721    1013.7737    3807.4947    3385.2898   -763.57331    547.97591   -1604.0923    921.43869    1380.6109    315.81643            0     2617.866   -1388.4949   -16.521551      36.6857      36.6857      36.6857            0            0            0   0.49858117 
278000 0.49858116795318702108 314.53999825865798812 359.890010350956004 910.3232273483949939 2811.8143798212299771 3722.1376071696299732 3981.2785962763400676
278000 0.49858116795318702108 314.53999825865798812 359.890010350956004 910.3232273483949939 2811.8143798212299771 3722.1376071696299732 3981.2785962763400676
  278000    49373.104       314.54    359.89001    2811.8144    910.32323    3722.1376    3981.2786   -769.05496    558.64978   -1598.0542    882.42098    1331.2291    294.72731            0    2508.3774    -1387.649   -16.521551      36.6857      36.6857      36.6857            0            0            0   0.49858117 
279000 0.49858116795318702108 303.43571032005098687 -236.85798484597501101 970.11157118665698817 2712.5481603378398177 3682.6597315244998754 3512.1087000831098521
279000 0.49858116795318702108 303.43571032005098687 -236.85798484597501101 970.11157118665698817 2712.5481603378398177 3682.6597315244998754 3512.1087000831098521
  279000    49373.104    303.43571   -236.85798    2712.5482    970.11157    3682.6597    3512.1087   -751.44888    551.23909   -1588.5005    896.20961    1371.7077    290.69477            0    2558.6121   -1388.2907   -16.521551      36.6857      36.6857      36.6857            0            0            0   0.49858117 
280000 0.49858116795318702108 310.07052072659797659 -53.074678830778097449 980.83256321354099327 2771.859711847339895 3752.6922750608800925 3714.4755300189199261
280000 0.49858116795318702108 310.07052072659797659 -53.074678830778097449 980.83256321354099327 2771.859711847339895 3752.6922750608800925 3714.4755300189199261
  280000    49373.104    310.07052   -53.074679    2771.8597    980.83256    3752.6923    3714.4755   -770.90009     549.9896   -1609.7497    899.75064     1382.326     308.5056            0    2590.5823   -1388.8392   -16.521551      36.6857      36.6857      36.6857            0            0            0   0.49858117 
  280532    49373.104    306.98628   -645.94624    2744.2883    978.26641    3722.5547    3257.4372   -752.98719    553.19289   -1587.5671    864.09045    1370.4964    331.24668            0    2565.8335   -1387.7728   -16.521551      36.6857      36.6857      36.6857            0            0            0   0.49858117 
Loop time of 84.2147 on 48 procs for 30000 steps with 3000 atoms

Performance: 30.778 ns/day, 0.780 hours/ns, 356.233 timesteps/s
49.8% CPU use with 48 MPI tasks x 1 OpenMP threads

MPI task timing breakdown:
Section |  min time  |  avg time  |  max time  |%varavg| %total
---------------------------------------------------------------
Pair    | 1.7966     | 19.666     | 30.182     | 165.6 | 23.35
Bond    | 0.097576   | 1.0049     | 1.4907     |  28.9 |  1.19
Kspace  | 12.192     | 22.216     | 39.665     | 152.6 | 26.38
Neigh   | 5.421      | 5.8604     | 6.262      |  10.7 |  6.96
Comm    | 22.93      | 26.429     | 31.951     |  38.3 | 31.38
Output  | 0.14676    | 0.14722    | 0.14747    |   0.1 |  0.17
Modify  | 1.64       | 5.5886     | 7.9283     |  60.1 |  6.64
Other   |            | 3.302      |            |       |  3.92

Nlocal:    62.5 ave 99 max 2 min
Histogram: 1 1 4 4 7 1 6 10 11 3
Nghost:    3851.58 ave 4115 max 3636 min
Histogram: 2 4 8 6 9 6 7 2 3 1
Neighs:    28361.5 ave 53270 max 275 min
Histogram: 1 7 1 5 4 10 5 8 4 3

Total # of neighbors = 1361353
Ave neighs/atom = 453.784
Ave special neighs/atom = 8.4
Neighbor list builds = 3255
Dangerous builds = 0

write_data      restart.${NAME}.final.data
write_data      restart.diEther.final.data
Ewald initialization ...
  using 12-bit tables for long-range coulomb (src/kspace.cpp:332)
  G vector (1/distance) = 0.12847
  estimated absolute RMS force accuracy = 0.0363016
  estimated relative force accuracy = 0.000109321
  KSpace vectors: actual max1d max3d = 61 3 171
                  kxmax kymax kzmax  = 3 3 3
Total wall time: 0:12:36
