diEther.data - created by mBuild; units = real

3000 atoms
2800 bonds
5000 angles
4800 dihedrals
0 impropers

5 atom types
4 bond types
7 angle types
6 dihedral types

0.000000 40.000000 xlo xhi
0.000000 40.000000 ylo yhi
0.000000 40.000000 zlo zhi

Masses

1	12.010780	# opls_135
2	1.007947	# opls_140
3	15.999430	# opls_180
4	12.010780	# opls_182
5	1.007947	# opls_185

Pair Coeffs # lj
#	epsilon (kcal/mol)		sigma (Angstrom)
1	0.06600		3.50000		# opls_135
2	0.03000		2.50000		# opls_140
3	0.14000		2.90000		# opls_180
4	0.06600		3.50000		# opls_182
5	0.03000		2.50000		# opls_185

Bond Coeffs # harmonic
#	k(kcal/mol/angstrom^2)		req(angstrom)
1	268.0		1.529		# opls_135	opls_182
2	320.0		1.41		# opls_180	opls_182
3	340.0		1.09		# opls_135	opls_140
4	340.0		1.09		# opls_182	opls_185

Angle Coeffs # harmonic
#	k(kcal/mol/rad^2)		theteq(deg)
1	50.0		109.50000	# opls_135	opls_182	opls_180
2	37.5		110.70000	# opls_135	opls_182	opls_185
3	37.5		110.70000	# opls_140	opls_135	opls_182
4	60.0		109.50000	# opls_182	opls_180	opls_182
5	35.0		109.50000	# opls_180	opls_182	opls_185
6	33.0		107.80000	# opls_140	opls_135	opls_140
7	33.0		107.80000	# opls_185	opls_182	opls_185

Dihedral Coeffs # opls
#	f1(kcal/mol)	f2(kcal/mol)	f3(kcal/mol)	f4(kcal/mol)
1	0.65000	-0.25000		0.67000		-0.00000	# opls_135	opls_182	opls_180	opls_182
2	0.65000	-0.25000		0.67000		-0.00000	# opls_182	opls_180	opls_182	opls_135
3	0.00000	-0.00000		0.76000		-0.00000	# opls_182	opls_180	opls_182	opls_185
4	0.00000	-0.00000		0.46800		-0.00000	# opls_180	opls_182	opls_135	opls_140
5	-0.00000	-0.00000		0.30000		-0.00000	# opls_140	opls_135	opls_182	opls_185
6	-0.00000	-0.00000		0.30000		-0.00000	# opls_185	opls_182	opls_135	opls_140

Atoms # full

1	1	1	-0.180000	8.063847	24.332927	18.702716
2	1	4	0.140000	7.758983	23.786934	20.093508
3	1	3	-0.400000	6.413702	24.054661	20.444422
4	1	4	0.140000	6.300136	25.265721	21.169017
5	1	1	-0.180000	6.354001	24.994467	22.668640
6	1	2	0.060000	7.972437	25.439110	18.692574
7	1	2	0.060000	7.356305	23.902814	17.962533
8	1	2	0.060000	9.099552	24.057874	18.411769
9	1	5	0.030000	7.893816	22.684983	20.069256
10	1	5	0.030000	8.497747	24.178399	20.831503
11	1	5	0.030000	5.311644	25.713880	20.934284
12	1	5	0.030000	7.065568	26.026273	20.887369
13	1	2	0.060000	5.558489	24.273438	22.952825
14	1	2	0.060000	7.342236	24.575133	22.950863
15	1	2	0.060000	6.196154	25.941842	23.225914
16	2	1	-0.180000	21.079067	20.929591	20.922921
17	2	4	0.140000	22.545773	21.320431	21.069098
18	2	3	-0.400000	23.203789	21.243133	19.817843
19	2	4	0.140000	23.818296	19.980841	19.634543
20	2	1	-0.180000	25.272331	20.026560	20.091756
21	2	2	0.060000	20.990665	19.868325	20.609872
22	2	2	0.060000	20.588123	21.574712	20.163792
23	2	2	0.060000	20.558838	21.059214	21.895315
24	2	5	0.030000	22.589554	22.374863	21.414530
25	2	5	0.030000	23.030170	20.707896	21.865222
26	2	5	0.030000	23.804669	19.747689	18.548948
27	2	5	0.030000	23.280768	19.146238	20.142630
28	2	2	0.060000	25.816368	20.827479	19.547664
29	2	2	0.060000	25.329054	20.225020	21.182396
30	2	2	0.060000	25.761551	19.052380	19.880508
31	3	1	-0.180000	28.994241	26.551343	5.129277
32	3	4	0.140000	29.432165	27.330279	6.364927
33	3	3	-0.400000	29.188119	28.713652	6.187945
34	3	4	0.140000	30.328065	29.377606	5.673855
35	3	1	-0.180000	31.169067	29.947018	6.811324
36	3	2	0.060000	29.603365	26.846659	4.249587
37	3	2	0.060000	27.923328	26.751921	4.913878
38	3	2	0.060000	29.127534	25.463302	5.306451
39	3	5	0.030000	28.823552	26.982561	7.226174
40	3	5	0.030000	30.493309	27.093803	6.613330
41	3	5	0.030000	29.977481	30.223929	5.046247
42	3	5	0.030000	30.957079	28.735516	5.013770
43	3	2	0.060000	30.551105	30.624340	7.438095
44	3	2	0.060000	31.567640	29.127885	7.445564
45	3	2	0.060000	32.022159	30.522320	6.393892
46	4	1	-0.180000	22.205681	10.192520	29.936525
47	4	4	0.140000	20.813395	10.766680	30.175750
48	4	3	-0.400000	20.002310	9.826285	30.855748
49	4	4	0.140000	19.249336	9.042175	29.948663
50	4	1	-0.180000	17.873974	9.661852	29.725662
51	4	2	0.060000	22.150641	9.311484	29.263587
52	4	2	0.060000	22.660461	9.884834	30.901920
53	4	2	0.060000	22.851565	10.962399	29.464180
54	4	5	0.030000	20.915811	11.662584	30.823771
55	4	5	0.030000	20.372815	11.121820	29.214805
56	4	5	0.030000	19.106644	8.037955	30.400597
57	4	5	0.030000	19.760883	8.877894	28.971431
58	4	2	0.060000	17.348280	9.778824	30.696973
59	4	2	0.060000	17.971327	10.656682	29.243029
60	4	2	0.060000	17.269508	9.003361	29.066876
61	5	1	-0.180000	19.903880	24.730056	20.787336
62	5	4	0.140000	19.577289	26.218620	20.733819
63	5	3	-0.400000	20.747181	26.970973	20.469397
64	5	4	0.140000	21.363732	27.405376	21.667628
65	5	1	-0.180000	20.875983	28.801341	22.040100
66	5	2	0.060000	20.589096	24.514321	21.633525
67	5	2	0.060000	20.386553	24.412952	19.838676
68	5	2	0.060000	18.969333	24.146989	20.927490
69	5	5	0.030000	18.865933	26.386407	19.897826
70	5	5	0.030000	19.048435	26.530692	21.664721
71	5	5	0.030000	22.458589	27.457950	21.489905
72	5	5	0.030000	21.216833	26.705021	22.522950
73	5	2	0.060000	21.068549	29.506436	21.203893
74	5	2	0.060000	19.787872	28.785574	22.258883
75	5	2	0.060000	21.416156	29.157803	22.942395
76	6	1	-0.180000	35.538116	29.904926	19.315850
77	6	4	0.140000	34.196539	30.148268	19.998718
78	6	3	-0.400000	34.141371	29.462256	21.236031
79	6	4	0.140000	33.551735	28.183168	21.091592
80	6	1	-0.180000	32.054499	28.253780	21.372033
81	6	2	0.060000	35.653624	28.830707	19.061277
82	6	2	0.060000	36.367406	30.210408	19.988488
83	6	2	0.060000	35.595444	30.501275	18.380932
84	6	5	0.030000	34.106367	31.235528	20.205601
85	6	5	0.030000	33.360144	29.888677	19.308278
86	6	5	0.030000	34.012328	27.506950	21.842355
87	6	5	0.030000	33.735426	27.718483	20.094608
88	6	2	0.060000	31.877414	28.672026	22.385540
89	6	2	0.060000	31.549839	28.896177	20.620539
90	6	2	0.060000	31.616249	27.234742	21.322161
91	7	1	-0.180000	18.657771	17.281649	8.493477
92	7	4	0.140000	19.749880	18.169145	9.080845
93	7	3	-0.400000	19.197903	19.075248	10.018341
94	7	4	0.140000	18.869489	20.311101	9.410547
95	7	1	-0.180000	20.026710	21.294634	9.547860
96	7	2	0.060000	17.930490	17.892079	7.918555
97	7	2	0.060000	18.122164	16.749427	9.307938
98	7	2	0.060000	19.111654	16.531741	7.811847
99	7	5	0.030000	20.472214	17.518630	9.617622
100	7	5	0.030000	20.322046	18.667755	8.263737
101	7	5	0.030000	17.992212	20.733077	9.944758
102	7	5	0.030000	18.570346	20.215188	8.340517
103	7	2	0.060000	20.289503	21.424466	10.619105
104	7	2	0.060000	20.916771	20.924296	8.997641
105	7	2	0.060000	19.732166	22.279556	9.128145
106	8	1	-0.180000	36.807553	14.377148	5.552370
107	8	4	0.140000	35.391306	14.723745	5.998986
108	8	3	-0.400000	35.322911	14.793896	7.411431
109	8	4	0.140000	34.927270	13.555207	7.971536
110	8	1	-0.180000	33.415714	13.520613	8.169914
111	8	2	0.060000	37.089547	13.365065	5.910511
112	8	2	0.060000	37.526254	15.119983	5.958753
113	8	2	0.060000	36.864073	14.391763	4.443505
114	8	5	0.030000	35.136675	15.725678	5.593574
115	8	5	0.030000	34.660899	14.008692	5.553050
116	8	5	0.030000	35.408703	13.460387	8.967676
117	8	5	0.030000	35.258034	12.671878	7.376578
118	8	2	0.060000	33.096348	14.374946	8.803636
119	8	2	0.060000	32.895448	13.579718	7.191175
120	8	2	0.060000	33.125960	12.573175	8.671306
121	9	1	-0.180000	11.468461	21.432948	27.810635
122	9	4	0.140000	10.370335	20.455109	27.406532
123	9	3	-0.400000	10.896738	19.439882	26.571778
124	9	4	0.140000	10.757006	19.772781	25.202745
125	9	1	-0.180000	9.464873	19.187574	24.643036
126	9	2	0.060000	11.863191	21.962034	26.918247
127	9	2	0.060000	12.298916	20.887330	28.306749
128	9	2	0.060000	11.058507	22.184012	28.518329
129	9	5	0.030000	9.980703	19.973135	28.327918
130	9	5	0.030000	9.513071	21.004876	26.952100
131	9	5	0.030000	11.608312	19.320414	24.651650
132	9	5	0.030000	10.800772	20.869373	25.004702
133	9	2	0.060000	9.447297	18.088083	24.798900
134	9	2	0.060000	8.585123	19.640073	25.146410
135	9	2	0.060000	9.400064	19.397335	23.554555
136	10	1	-0.180000	28.108654	19.450844	15.367435
137	10	4	0.140000	28.790168	20.654367	16.009635
138	10	3	-0.400000	28.098830	21.045235	17.181758
139	10	4	0.140000	27.141659	22.051299	16.905606
140	10	1	-0.180000	27.745752	23.433995	17.126005
141	10	2	0.060000	27.086237	19.719873	15.029226
142	10	2	0.060000	28.042275	18.617360	16.098450
143	10	2	0.060000	28.697483	19.112369	14.488967
144	10	5	0.030000	29.818197	20.353664	16.302549
145	10	5	0.030000	28.902798	21.476332	15.264423
146	10	5	0.030000	26.297870	21.925630	17.616443
147	10	5	0.030000	26.704391	21.980626	15.882154
148	10	2	0.060000	28.136524	23.516758	18.162311
149	10	2	0.060000	28.574616	23.612896	16.409710
150	10	2	0.060000	26.967464	24.210926	16.972271
151	11	1	-0.180000	21.947601	20.716129	24.682090
152	11	4	0.140000	21.634589	22.053984	25.343542
153	11	3	-0.400000	21.322086	23.027288	24.363939
154	11	4	0.140000	22.468816	23.767039	23.986607
155	11	1	-0.180000	22.580795	25.036873	24.823466
156	11	2	0.060000	22.856840	20.799763	24.050910
157	11	2	0.060000	21.093206	20.396814	24.048427
158	11	2	0.060000	22.124325	19.945687	25.461947
159	11	5	0.030000	20.741594	21.919373	25.989687
160	11	5	0.030000	22.469556	22.354498	26.018947
161	11	5	0.030000	22.350466	24.063518	22.923049
162	11	5	0.030000	23.415893	23.181305	24.046707
163	11	2	0.060000	21.654500	25.641193	24.722183
164	11	2	0.060000	22.734037	24.783185	25.893166
165	11	2	0.060000	23.444081	25.640859	24.472855
166	12	1	-0.180000	33.116909	5.593509	24.503522
167	12	4	0.140000	34.530866	5.290912	24.019258
168	12	3	-0.400000	35.359233	4.931359	25.109730
169	12	4	0.140000	36.046922	6.055023	25.628442
170	12	1	-0.180000	37.419908	6.184403	24.977657
171	12	2	0.060000	33.118587	6.477514	25.174813
172	12	2	0.060000	32.709067	4.719521	25.054242
173	12	2	0.060000	32.461400	5.807697	23.633222
174	12	5	0.030000	34.480831	4.424255	23.326822
175	12	5	0.030000	34.925684	6.147254	23.423902
176	12	5	0.030000	36.194456	5.893712	26.717145
177	12	5	0.030000	35.480307	7.010017	25.525551
178	12	2	0.060000	37.999418	5.248431	25.124652
179	12	2	0.060000	37.315801	6.380344	23.890059
180	12	2	0.060000	37.975154	7.027320	25.440454
181	13	1	-0.180000	30.979436	11.380309	3.718093
182	13	4	0.140000	30.495381	12.492643	2.794105
183	13	3	-0.400000	30.373057	13.708897	3.508501
184	13	4	0.140000	29.057909	13.888499	4.001179
185	13	1	-0.180000	28.226453	14.698915	3.012617
186	13	2	0.060000	30.228125	11.180988	4.510496
187	13	2	0.060000	31.940001	11.672352	4.192970
188	13	2	0.060000	31.136141	10.449743	3.132874
189	13	5	0.030000	31.257119	12.637453	1.999215
190	13	5	0.030000	29.556474	12.183378	2.277905
191	13	5	0.030000	29.122877	14.462158	4.949735
192	13	5	0.030000	28.540115	12.931783	4.246610
193	13	2	0.060000	28.721480	15.671893	2.808302
194	13	2	0.060000	28.109257	14.143438	2.058777
195	13	2	0.060000	27.219610	14.890646	3.439812
196	14	1	-0.180000	13.111531	8.335815	3.955278
197	14	4	0.140000	14.374152	7.594382	3.529352
198	14	3	-0.400000	14.082546	6.683023	2.485804
199	14	4	0.140000	13.797165	5.392026	2.992248
200	14	1	-0.180000	15.061600	4.540025	3.017746
201	14	2	0.060000	12.372033	7.626948	4.382768
202	14	2	0.060000	12.659391	8.849228	3.080372
203	14	2	0.060000	13.365170	9.094341	4.725535
204	14	5	0.030000	15.098281	8.340720	3.139889
205	14	5	0.030000	14.858062	7.117981	4.413956
206	14	5	0.030000	13.068723	4.908802	2.307464
207	14	5	0.030000	13.320858	5.404805	4.000523
208	14	2	0.060000	15.506144	4.489881	2.001208
209	14	2	0.060000	15.805630	4.972476	3.718819
210	14	2	0.060000	14.812398	3.510929	3.352184
211	15	1	-0.180000	33.856973	30.135885	30.511289
212	15	4	0.140000	32.987398	28.947750	30.114396
213	15	3	-0.400000	32.276791	29.232748	28.923424
214	15	4	0.140000	30.992242	29.759097	29.201797
215	15	1	-0.180000	29.955511	28.641253	29.232841
216	15	2	0.060000	33.224140	31.015878	30.750525
217	15	2	0.060000	34.544497	30.397847	29.679322
218	15	2	0.060000	34.459454	29.875660	31.406994
219	15	5	0.030000	33.654395	28.082295	29.916486
220	15	5	0.030000	32.329835	28.650561	30.964656
221	15	5	0.030000	30.723025	30.457278	28.381354
222	15	5	0.030000	30.948895	30.351028	30.145931
223	15	2	0.060000	29.968362	28.084772	28.271776
224	15	2	0.060000	30.170452	27.936990	30.063451
225	15	2	0.060000	28.943976	29.073491	29.384355
226	16	1	-0.180000	13.254690	30.813498	24.285900
227	16	4	0.140000	14.465866	29.967375	24.663364
228	16	3	-0.400000	15.207907	30.599019	25.690496
229	16	4	0.140000	16.247608	31.399697	25.158956
230	16	1	-0.180000	17.545476	30.602804	25.082467
231	16	2	0.060000	13.579351	31.785086	23.858455
232	16	2	0.060000	12.628774	31.002241	25.183724
233	16	2	0.060000	12.644803	30.276735	23.528989
234	16	5	0.030000	14.099523	28.994655	25.054097
235	16	5	0.030000	15.070959	29.734483	23.756018
236	16	5	0.030000	16.407653	32.255265	25.848486
237	16	5	0.030000	16.006026	31.839016	24.162819
238	16	2	0.060000	17.808159	30.207790	26.086680
239	16	2	0.060000	17.437544	29.754289	24.375026
240	16	2	0.060000	18.367508	31.260037	24.728494
241	17	1	-0.180000	28.040643	33.878875	5.679361
242	17	4	0.140000	27.651236	34.538015	4.360556
243	17	3	-0.400000	26.417379	35.219249	4.495149
244	17	4	0.140000	25.329150	34.396561	4.116279
245	17	1	-0.180000	24.982157	34.617694	2.647931
246	17	2	0.060000	27.302170	33.097069	5.954195
247	17	2	0.060000	28.081541	34.640335	6.486819
248	17	2	0.060000	29.040471	33.406112	5.580227
249	17	5	0.030000	28.430118	35.287281	4.105588
250	17	5	0.030000	27.656674	33.785597	3.537458
251	17	5	0.030000	24.449338	34.689613	4.727110
252	17	5	0.030000	25.501557	33.312359	4.312323
253	17	2	0.060000	24.763548	35.691460	2.467047
254	17	2	0.060000	25.826666	34.304480	1.999238
255	17	2	0.060000	24.086122	34.018596	2.381113
256	18	1	-0.180000	17.801176	31.225061	7.973760
257	18	4	0.140000	17.196252	30.276286	9.002955
258	18	3	-0.400000	15.999148	29.707146	8.505340
259	18	4	0.140000	14.866328	30.458078	8.902104
260	18	1	-0.180000	14.280127	29.893765	10.191782
261	18	2	0.060000	17.121381	32.083542	7.792137
262	18	2	0.060000	17.972342	30.688011	7.016804
263	18	2	0.060000	18.772566	31.612058	8.347422
264	18	5	0.030000	17.919310	29.452394	9.180307
265	18	5	0.030000	17.068158	30.798575	9.979919
266	18	5	0.030000	14.098716	30.367073	8.104888
267	18	5	0.030000	15.072928	31.547885	9.017376
268	18	2	0.060000	14.030514	28.819940	10.057333
269	18	2	0.060000	15.006730	29.996440	11.024612
270	18	2	0.060000	13.354555	30.447596	10.455555
271	19	1	-0.180000	16.508046	14.478827	7.978512
272	19	4	0.140000	17.298636	13.196381	8.214417
273	19	3	-0.400000	18.262375	13.391507	9.233109
274	19	4	0.140000	19.515910	13.767713	8.692999
275	19	1	-0.180000	20.390900	12.538005	8.474914
276	19	2	0.060000	17.175732	15.281228	7.601091
277	19	2	0.060000	16.036662	14.814039	8.926622
278	19	2	0.060000	15.711811	14.294341	7.226872
279	19	5	0.030000	16.591043	12.412569	8.557953
280	19	5	0.030000	17.733174	12.829724	7.255047
281	19	5	0.030000	20.022655	14.426023	9.429817
282	19	5	0.030000	19.435277	14.355508	7.748729
283	19	2	0.060000	20.508650	11.981822	9.428999
284	19	2	0.060000	19.934216	11.867449	7.717356
285	19	2	0.060000	21.393676	12.851547	8.115579
286	20	1	-0.180000	22.789453	17.519041	22.484994
287	20	4	0.140000	21.796039	17.102444	21.405677
288	20	3	-0.400000	21.269143	15.819245	21.689192
289	20	4	0.140000	22.012825	14.801524	21.044381
290	20	1	-0.180000	21.389457	14.462246	19.694694
291	20	2	0.060000	23.664932	16.836681	22.489406
292	20	2	0.060000	22.301004	17.490275	23.482026
293	20	2	0.060000	23.143855	18.552784	22.288107
294	20	5	0.030000	20.954765	17.827207	21.412140
295	20	5	0.030000	22.268150	17.176984	20.398101
296	20	5	0.030000	21.973504	13.892767	21.681309
297	20	5	0.030000	23.092367	15.051191	20.918262
298	20	2	0.060000	20.327430	14.167050	19.830493
299	20	2	0.060000	21.439096	15.337904	19.014358
300	20	2	0.060000	21.940608	13.617713	19.229951
301	21	1	-0.180000	25.161207	7.709375	29.562134
302	21	4	0.140000	26.185947	8.231457	28.560790
303	21	3	-0.400000	26.442192	7.258433	27.564716
304	21	4	0.140000	27.556039	6.452919	27.903967
305	21	1	-0.180000	28.830550	7.023787	27.291527
306	21	2	0.060000	25.565346	6.830855	30.107086
307	21	2	0.060000	24.230701	7.412711	29.033333
308	21	2	0.060000	24.918440	8.504821	30.297879
309	21	5	0.030000	25.757376	9.126693	28.062850
310	21	5	0.030000	27.103500	8.576030	29.092784
311	21	5	0.030000	27.390234	5.441588	27.476439
312	21	5	0.030000	27.685809	6.312914	29.002698
313	21	2	0.060000	28.714531	7.116039	26.190840
314	21	2	0.060000	29.050840	8.024275	27.718839
315	21	2	0.060000	29.684539	6.347730	27.507484
316	22	1	-0.180000	30.952745	5.352567	17.638567
317	22	4	0.140000	31.077816	6.000027	19.013522
318	22	3	-0.400000	32.081016	6.999013	18.998775
319	22	4	0.140000	33.333318	6.479475	19.406719
320	22	1	-0.180000	33.530939	6.684676	20.904781
321	22	2	0.060000	31.891193	4.822240	17.373675
322	22	2	0.060000	30.744343	6.128056	16.871319
323	22	2	0.060000	30.118462	4.619817	17.644787
324	22	5	0.030000	30.110567	6.489497	19.254174
325	22	5	0.030000	31.238455	5.219522	19.793688
326	22	5	0.030000	34.127922	7.042444	18.873115
327	22	5	0.030000	33.476889	5.405529	19.142755
328	22	2	0.060000	33.435363	7.762231	21.156222
329	22	2	0.060000	32.773864	6.109350	21.477439
330	22	2	0.060000	34.542759	6.335157	21.199819
331	23	1	-0.180000	21.481714	32.630914	8.413984
332	23	4	0.140000	22.856943	32.755255	9.061004
333	23	3	-0.400000	23.587020	31.552548	8.902619
334	23	4	0.140000	23.417674	30.695039	10.016441
335	23	1	-0.180000	24.530952	30.919916	11.033983
336	23	2	0.060000	20.880631	31.852697	8.928936
337	23	2	0.060000	21.589398	32.357623	7.342910
338	23	2	0.060000	20.945837	33.600832	8.485287
339	23	5	0.030000	23.411908	33.563901	8.540265
340	23	5	0.030000	22.754954	33.077255	10.123815
341	23	5	0.030000	23.486069	29.647148	9.655456
342	23	5	0.030000	22.421271	30.794601	10.507277
343	23	2	0.060000	25.520828	30.771965	10.552591
344	23	2	0.060000	24.477157	31.949476	11.445338
345	23	2	0.060000	24.425801	30.196025	11.869396
346	24	1	-0.180000	35.833304	31.714903	8.385705
347	24	4	0.140000	34.473510	31.597159	7.705670
348	24	3	-0.400000	34.332759	32.592775	6.708906
349	24	4	0.140000	33.696455	33.749495	7.220488
350	24	1	-0.180000	32.192335	33.678671	6.979748
351	24	2	0.060000	35.914514	32.682404	8.923707
352	24	2	0.060000	36.643256	31.650820	7.628504
353	24	2	0.060000	35.958585	30.888572	9.116781
354	24	5	0.030000	34.420319	30.605391	7.209050
355	24	5	0.030000	33.659233	31.611915	8.467502
356	24	5	0.030000	34.093097	34.629606	6.671724
357	24	5	0.030000	33.905550	33.931482	8.300678
358	24	2	0.060000	31.987103	33.546160	5.896326
359	24	2	0.060000	31.750306	32.828470	7.539988
360	24	2	0.060000	31.713866	34.619821	7.323687
361	25	1	-0.180000	28.725051	9.186617	2.638636
362	25	4	0.140000	27.711031	9.578289	3.708079
363	25	3	-0.400000	26.487200	9.963885	3.109620
364	25	4	0.140000	26.432344	11.363269	2.901500
365	25	1	-0.180000	25.758780	12.050200	4.084627
366	25	2	0.060000	28.972655	10.061018	2.001286
367	25	2	0.060000	28.310611	8.377426	2.000724
368	25	2	0.060000	29.656100	8.822217	3.121700
369	25	5	0.030000	27.516529	8.687846	4.342386
370	25	5	0.030000	28.141901	10.356217	4.381006
371	25	5	0.030000	25.816669	11.551089	1.996663
372	25	5	0.030000	27.429049	11.823401	2.705265
373	25	2	0.060000	24.746727	11.622272	4.246212
374	25	2	0.060000	26.362319	11.913948	5.006188
375	25	2	0.060000	25.660873	13.137138	3.879764
376	26	1	-0.180000	31.815494	7.983433	9.076281
377	26	4	0.140000	31.619692	7.514710	7.638467
378	26	3	-0.400000	32.855408	7.514079	6.947377
379	26	4	0.140000	33.061659	8.732808	6.256897
380	26	1	-0.180000	32.566031	8.619215	4.819260
381	26	2	0.060000	32.163264	9.037365	9.095832
382	26	2	0.060000	32.566753	7.343148	9.585329
383	26	2	0.060000	30.853262	7.915024	9.626207
384	26	5	0.030000	31.240924	6.471179	7.663830
385	26	5	0.030000	30.830632	8.124044	7.138717
386	26	5	0.030000	34.153914	8.931241	6.231111
387	26	5	0.030000	32.593513	9.612579	6.757390
388	26	2	0.060000	33.071022	7.771525	4.309467
389	26	2	0.060000	31.468696	8.453109	4.800153
390	26	2	0.060000	32.794551	9.556673	4.269769
391	27	1	-0.180000	33.239157	18.315184	12.395906
392	27	4	0.140000	33.586515	19.666965	11.781593
393	27	3	-0.400000	34.657781	19.531802	10.865777
394	27	4	0.140000	35.904820	19.776911	11.489809
395	27	1	-0.180000	36.303370	21.239445	11.323966
396	27	2	0.060000	34.091196	17.932043	12.995349
397	27	2	0.060000	33.000469	17.584126	11.594617
398	27	2	0.060000	32.355468	18.422101	13.059723
399	27	5	0.030000	32.699663	20.029456	11.220203
400	27	5	0.030000	33.779171	20.416799	12.584268
401	27	5	0.030000	36.669849	19.150866	10.983982
402	27	5	0.030000	35.926821	19.491477	12.567628
403	27	2	0.060000	36.327565	21.506459	10.246190
404	27	2	0.060000	35.579312	21.899468	11.845702
405	27	2	0.060000	37.312332	21.403554	11.757616
406	28	1	-0.180000	30.276133	16.956614	22.833202
407	28	4	0.140000	31.459843	16.002498	22.715535
408	28	3	-0.400000	31.280957	14.887138	23.569099
409	28	4	0.140000	31.896064	15.095625	24.827183
410	28	1	-0.180000	33.311019	14.527071	24.827330
411	28	2	0.060000	30.219009	17.377880	23.858566
412	28	2	0.060000	29.331005	16.418568	22.607985
413	28	2	0.060000	30.395417	17.791344	22.110716
414	28	5	0.030000	31.501177	15.630554	21.670062
415	28	5	0.030000	32.415050	16.549989	22.892976
416	28	5	0.030000	31.304441	14.550055	25.592296
417	28	5	0.030000	31.910499	16.164843	25.143751
418	28	2	0.060000	33.287243	13.449634	24.558914
419	28	2	0.060000	33.946258	15.069712	24.096501
420	28	2	0.060000	33.757623	14.635862	25.838121
421	29	1	-0.180000	27.358373	34.751019	36.912669
422	29	4	0.140000	26.236205	33.747004	36.671747
423	29	3	-0.400000	26.159135	33.413837	35.297826
424	29	4	0.140000	25.228982	34.236916	34.618152
425	29	1	-0.180000	23.858360	33.569649	34.579424
426	29	2	0.060000	27.141639	35.706356	36.390696
427	29	2	0.060000	28.320574	34.342091	36.537929
428	29	2	0.060000	27.452810	34.952355	38.000573
429	29	5	0.030000	26.474367	32.820713	37.235953
430	29	5	0.030000	25.277421	34.133042	37.090507
431	29	5	0.030000	25.582063	34.361851	33.572787
432	29	5	0.030000	25.145962	35.262907	35.047221
433	29	2	0.060000	23.937169	32.567617	34.106979
434	29	2	0.060000	23.453955	33.456186	35.606888
435	29	2	0.060000	23.155921	34.192381	33.986320
436	30	1	-0.180000	31.083517	27.265786	18.028281
437	30	4	0.140000	31.326750	27.666630	16.577242
438	30	3	-0.400000	32.640337	27.315794	16.182269
439	30	4	0.140000	33.540517	28.392727	16.367987
440	30	1	-0.180000	33.663348	29.209400	15.086071
441	30	2	0.060000	31.755163	27.834490	18.704717
442	30	2	0.060000	31.271636	26.178990	18.158545
443	30	2	0.060000	30.030515	27.483953	18.305010
444	30	5	0.030000	30.614855	27.102042	15.938878
445	30	5	0.030000	31.091816	28.747005	16.431471
446	30	5	0.030000	34.538929	27.967776	16.603894
447	30	5	0.030000	33.270590	29.055975	17.222910
448	30	2	0.060000	33.979706	28.553898	14.247192
449	30	2	0.060000	32.690695	29.680269	14.832442
450	30	2	0.060000	34.421709	30.008819	15.223207
451	31	1	-0.180000	6.916413	3.067789	3.642062
452	31	4	0.140000	5.739942	4.015831	3.435946
453	31	3	-0.400000	4.607192	3.559051	4.152068
454	31	4	0.140000	3.774386	2.751208	3.340634
455	31	1	-0.180000	2.685272	3.597005	2.689629
456	31	2	0.060000	6.685966	2.067453	3.219781
457	31	2	0.060000	7.134462	2.963425	4.726057
458	31	2	0.060000	7.816065	3.471798	3.131774
459	31	5	0.030000	6.022769	5.010478	3.840608
460	31	5	0.030000	5.548913	4.161648	2.346957
461	31	5	0.030000	3.283678	1.999872	3.994670
462	31	5	0.030000	4.331713	2.176666	2.564142
463	31	2	0.060000	2.101202	4.129770	3.469698
464	31	2	0.060000	3.134112	4.341730	1.999682
465	31	2	0.060000	1.999395	2.942792	2.111212
466	32	1	-0.180000	10.594550	6.335325	12.850400
467	32	4	0.140000	9.748899	5.106714	12.533005
468	32	3	-0.400000	8.652696	5.461703	11.710252
469	32	4	0.140000	7.499438	5.746214	12.480739
470	32	1	-0.180000	6.637170	4.497076	12.627364
471	32	2	0.060000	10.007087	7.066808	13.443626
472	32	2	0.060000	10.931425	6.817948	11.908554
473	32	2	0.060000	11.486675	6.033443	13.438591
474	32	5	0.030000	10.381167	4.388184	11.969963
475	32	5	0.030000	9.449379	4.591266	13.475477
476	32	5	0.030000	6.906714	6.513589	11.939560
477	32	5	0.030000	7.729280	6.175590	13.483963
478	32	2	0.060000	6.369919	4.100457	11.624991
479	32	2	0.060000	7.183092	3.714275	13.194191
480	32	2	0.060000	5.704383	4.748726	13.174692
481	33	1	-0.180000	6.818232	15.992855	33.580786
482	33	4	0.140000	7.504783	17.223637	34.163171
483	33	3	-0.400000	6.676461	17.837515	35.133551
484	33	4	0.140000	5.882225	18.860738	34.561885
485	33	1	-0.180000	6.578703	20.210740	34.695159
486	33	2	0.060000	5.895907	16.285218	33.036784
487	33	2	0.060000	6.551592	15.286020	34.394894
488	33	2	0.060000	7.503867	15.482504	32.871959
489	33	5	0.030000	8.436734	16.892828	34.668243
490	33	5	0.030000	7.817963	17.913463	33.344812
491	33	5	0.030000	4.926651	18.907844	35.125553
492	33	5	0.030000	5.610673	18.670816	33.497065
493	33	2	0.060000	6.803748	20.418053	35.762801
494	33	2	0.060000	7.525848	20.216426	34.116381
495	33	2	0.060000	5.917364	21.012837	34.304953
496	34	1	-0.180000	16.923799	7.269584	6.817262
497	34	4	0.140000	18.424581	7.498685	6.674031
498	34	3	-0.400000	18.773595	8.788117	7.143239
499	34	4	0.140000	18.782518	9.735647	6.091238
500	34	1	-0.180000	20.184252	9.865172	5.504965
501	34	2	0.060000	16.361012	7.978143	6.174369
502	34	2	0.060000	16.616716	7.415402	7.874580
503	34	2	0.060000	16.672831	6.232507	6.509891
504	34	5	0.030000	18.949965	6.750887	7.304773
505	34	5	0.030000	18.745236	7.305513	5.623547
506	34	5	0.030000	18.492840	10.720405	6.514795
507	34	5	0.030000	18.046541	9.511283	5.283990
508	34	2	0.060000	20.906344	10.136575	6.303968
509	34	2	0.060000	20.499417	8.907670	5.040251
510	34	2	0.060000	20.192835	10.658570	4.728154
511	35	1	-0.180000	24.814753	5.359627	11.239546
512	35	4	0.140000	26.015725	6.299221	11.252930
513	35	3	-0.400000	27.218427	5.560690	11.365538
514	35	4	0.140000	27.621138	5.432359	12.716817
515	35	1	-0.180000	28.589119	6.549670	13.090955
516	35	2	0.060000	24.736864	4.817282	12.204893
517	35	2	0.060000	24.918811	4.622243	10.415581
518	35	2	0.060000	23.884030	5.944614	11.082909
519	35	5	0.030000	26.038182	6.844980	10.286127
520	35	5	0.030000	25.891723	7.071602	12.047727
521	35	5	0.030000	28.153127	4.463691	12.825138
522	35	5	0.030000	26.768178	5.405169	13.434710
523	35	2	0.060000	29.461283	6.542431	12.403379
524	35	2	0.060000	28.084527	7.536310	13.027496
525	35	2	0.060000	28.949680	6.399582	14.130406
526	36	1	-0.180000	5.937495	16.949971	16.938762
527	36	4	0.140000	6.793317	17.962960	17.691607
528	36	3	-0.400000	6.023893	18.618635	18.682908
529	36	4	0.140000	5.471012	19.826351	18.192656
530	36	1	-0.180000	6.389900	21.000117	18.514009
531	36	2	0.060000	5.124307	17.465104	16.386076
532	36	2	0.060000	5.490180	16.226029	17.652414
533	36	2	0.060000	6.567316	16.395363	16.211627
534	36	5	0.030000	7.611710	17.412468	18.201760
535	36	5	0.030000	7.283491	18.661965	16.974131
536	36	5	0.030000	4.502541	19.994242	18.709317
537	36	5	0.030000	5.245285	19.801508	17.100832
538	36	2	0.060000	6.572970	21.050409	19.608285
539	36	2	0.060000	7.360756	20.886930	17.987962
540	36	2	0.060000	5.914414	21.948170	18.185226
541	37	1	-0.180000	26.650172	27.093136	29.292924
542	37	4	0.140000	26.149976	25.753191	29.821794
543	37	3	-0.400000	27.112518	25.172365	30.682465
544	37	4	0.140000	27.968848	24.290797	29.979516
545	37	1	-0.180000	27.437719	22.863263	30.052991
546	37	2	0.060000	27.554933	26.948555	28.666345
547	37	2	0.060000	26.898521	27.766876	30.140202
548	37	2	0.060000	25.860391	27.569450	28.674571
549	37	5	0.030000	25.228468	25.937495	30.413332
550	37	5	0.030000	25.853308	25.091218	28.974780
551	37	5	0.030000	28.963969	24.314926	30.471670
552	37	5	0.030000	28.135807	24.585495	28.917005
553	37	2	0.060000	27.318981	22.556515	31.113788
554	37	2	0.060000	26.455622	22.788870	29.541083
555	37	2	0.060000	28.151799	22.172606	29.556935
556	38	1	-0.180000	17.500878	34.483007	30.275978
557	38	4	0.140000	16.452375	35.474634	29.783363
558	38	3	-0.400000	16.180958	35.263689	28.409888
559	38	4	0.140000	16.985754	36.092292	27.591156
560	38	1	-0.180000	16.250691	37.386680	27.260107
561	38	2	0.060000	18.467252	34.651581	29.756552
562	38	2	0.060000	17.160709	33.443564	30.082778
563	38	2	0.060000	17.655211	34.613560	31.367824
564	38	5	0.030000	15.514094	35.295013	30.349428
565	38	5	0.030000	16.767809	36.517885	30.019540
566	38	5	0.030000	17.178148	35.551438	26.640618
567	38	5	0.030000	17.984613	36.318557	28.032444
568	38	2	0.060000	15.277563	37.157571	26.776356
569	38	2	0.060000	16.067918	37.975010	28.183449
570	38	2	0.060000	16.863386	37.997024	26.563635
571	39	1	-0.180000	17.873105	3.814143	13.949561
572	39	4	0.140000	16.726939	2.814739	13.836219
573	39	3	-0.400000	15.587069	3.433899	13.268825
574	39	4	0.140000	14.719267	3.934283	14.269394
575	39	1	-0.180000	13.652340	2.900286	14.612710
576	39	2	0.060000	17.604909	4.632912	14.649409
577	39	2	0.060000	18.098838	4.247609	12.952248
578	39	2	0.060000	18.780401	3.300795	14.332022
579	39	5	0.030000	17.047108	1.997568	13.155933
580	39	5	0.030000	16.529544	2.341045	14.826321
581	39	5	0.030000	14.210537	4.833773	13.862978
582	39	5	0.030000	15.248917	4.262923	15.194119
583	39	2	0.060000	13.094602	2.611761	13.696651
584	39	2	0.060000	14.118633	1.995033	15.054511
585	39	2	0.060000	12.938951	3.328979	15.347753
586	40	1	-0.180000	13.595981	19.262709	30.318301
587	40	4	0.140000	12.133774	19.547668	30.644031
588	40	3	-0.400000	11.880765	20.939986	30.598884
589	40	4	0.140000	12.020287	21.532024	31.877408
590	40	1	-0.180000	10.672401	21.583906	32.588649
591	40	2	0.060000	14.258183	19.706561	31.090688
592	40	2	0.060000	13.854766	19.691978	29.327219
593	40	2	0.060000	13.765934	18.165749	30.290287
594	40	5	0.030000	11.505773	19.060129	29.868799
595	40	5	0.030000	11.856683	19.076302	31.615981
596	40	5	0.030000	12.376238	22.574210	31.735247
597	40	5	0.030000	12.776742	21.026072	32.521954
598	40	2	0.060000	9.934615	22.131214	31.964463
599	40	2	0.060000	10.296004	20.557362	32.780040
600	40	2	0.060000	10.782208	22.110497	33.560057