DCM.data - created by mBuild; units = real

1000 atoms
800 bonds
1200 angles
0 dihedrals
0 impropers

3 atom types
2 bond types
3 angle types

0.000000 40.000000 xlo xhi
0.000000 40.000000 ylo yhi
0.000000 40.000000 zlo zhi

Masses

1	35.453200	# opls_151
2	12.010780	# opls_152
3	1.007947	# opls_153

Pair Coeffs # lj
#	epsilon (kcal/mol)		sigma (Angstrom)
1	0.30000		3.40000		# opls_151
2	0.06600		3.50000		# opls_152
3	0.03000		2.50000		# opls_153

Bond Coeffs # harmonic
#	k(kcal/mol/angstrom^2)		req(angstrom)
1	245.0		1.781		# opls_151	opls_152
2	340.0		1.09		# opls_152	opls_153

Angle Coeffs # harmonic
#	k(kcal/mol/rad^2)		theteq(deg)
1	78.0		111.70000	# opls_151	opls_152	opls_151
2	51.0		107.60000	# opls_151	opls_152	opls_153
3	33.0		107.80000	# opls_153	opls_152	opls_153

Atoms # full

1	1	2	-0.006000	5.261964	21.796250	20.411138
2	1	1	-0.200000	4.973456	23.487549	20.877509
3	1	1	-0.200000	4.071213	21.308430	19.184201
4	1	3	0.103000	6.284993	21.697151	19.993571
5	1	3	0.103000	5.161930	21.144429	21.303266
6	2	2	-0.006000	10.557060	2.926609	11.213423
7	2	1	-0.200000	12.304032	3.242273	11.115055
8	2	1	-0.200000	9.668691	4.459950	11.068865
9	2	3	0.103000	10.257222	2.246447	10.389864
10	2	3	0.103000	10.321165	2.453070	12.188556
11	3	2	-0.006000	21.831586	17.913794	20.725623
12	3	1	-0.200000	21.161389	19.505932	21.146529
13	3	1	-0.200000	23.570566	18.072454	20.390949
14	3	3	0.103000	21.680388	17.213295	21.572507
15	3	3	0.103000	21.315909	17.521867	19.824933
16	4	2	-0.006000	31.400234	31.065017	5.826645
17	4	1	-0.200000	31.195573	32.074970	7.275555
18	4	1	-0.200000	32.224839	29.553367	6.269558
19	4	3	0.103000	30.405208	30.830867	5.395519
20	4	3	0.103000	32.008441	31.612205	5.077351
21	5	2	-0.006000	24.089953	9.906161	28.801991
22	5	1	-0.200000	24.970892	8.363953	28.884299
23	5	1	-0.200000	25.247973	11.254035	28.860797
24	5	3	0.103000	23.515122	9.953565	27.854313
25	5	3	0.103000	23.392561	9.980014	29.661619
26	6	2	-0.006000	18.317404	28.774592	19.228090
27	6	1	-0.200000	19.985129	28.348352	18.782842
28	6	1	-0.200000	17.207967	27.512310	18.647550
29	6	3	0.103000	18.238838	28.856994	20.331633
30	6	3	0.103000	18.047622	29.745756	18.764594
31	7	2	-0.006000	32.440954	27.610518	23.043757
32	7	1	-0.200000	31.963185	26.544127	24.383823
33	7	1	-0.200000	31.060403	27.838725	21.946838
34	7	3	0.103000	32.758142	28.593558	23.448475
35	7	3	0.103000	33.283279	27.150471	22.487325
36	8	2	-0.006000	18.815911	16.216703	9.289626
37	8	1	-0.200000	19.645931	15.926833	10.835030
38	8	1	-0.200000	17.233388	15.406399	9.305755
39	8	3	0.103000	18.671511	17.307288	9.146288
40	8	3	0.103000	19.429840	15.812582	8.458634
41	9	2	-0.006000	35.127863	12.223882	7.410264
42	9	1	-0.200000	34.312826	11.473998	8.801171
43	9	1	-0.200000	36.887646	12.179955	7.660196
44	9	3	0.103000	34.871513	11.665716	6.486410
45	9	3	0.103000	34.794732	13.277354	7.310305
46	10	2	-0.006000	11.297585	21.987503	24.427039
47	10	1	-0.200000	10.473636	23.377817	25.168234
48	10	1	-0.200000	12.796904	22.535531	23.644133
49	10	3	0.103000	11.541150	21.241090	25.210821
50	10	3	0.103000	10.632619	21.524474	23.669283
51	11	2	-0.006000	29.407886	18.758569	16.949365
52	11	1	-0.200000	28.093425	17.575717	17.134530
53	11	1	-0.200000	28.719517	20.358298	16.591250
54	11	3	0.103000	29.994013	18.810314	17.889870
55	11	3	0.103000	30.071442	18.446709	16.116773
56	12	2	-0.006000	21.125044	25.037162	22.178553
57	12	1	-0.200000	19.883826	26.179372	22.740663
58	12	1	-0.200000	22.736930	25.661120	22.595366
59	12	3	0.103000	20.971304	24.053549	22.668084
60	12	3	0.103000	21.047502	24.918762	21.078217
61	13	2	-0.006000	32.292330	6.801529	22.702260
62	13	1	-0.200000	33.637514	5.733857	23.162463
63	13	1	-0.200000	30.788060	5.857344	22.619086
64	13	3	0.103000	32.182913	7.605579	23.458768
65	13	3	0.103000	32.501008	7.252794	21.710502
66	14	2	-0.006000	26.019120	13.897572	7.450133
67	14	1	-0.200000	24.350359	13.309889	7.273789
68	14	1	-0.200000	27.107020	12.898360	6.460546
69	14	3	0.103000	26.077139	14.952848	7.112795
70	14	3	0.103000	26.323535	13.832451	8.514962
71	15	2	-0.006000	12.971118	6.227129	5.338092
72	15	1	-0.200000	12.184628	5.682043	6.836607
73	15	1	-0.200000	14.165273	5.015596	4.820970
74	15	3	0.103000	12.206495	6.354909	4.544496
75	15	3	0.103000	13.481375	7.195404	5.519341
76	16	2	-0.006000	31.305284	27.688473	30.049427
77	16	1	-0.200000	32.253198	28.207042	28.637415
78	16	1	-0.200000	29.980440	26.628897	29.517148
79	16	3	0.103000	31.961477	27.135364	30.752458
80	16	3	0.103000	30.884279	28.579146	30.559551
81	17	2	-0.006000	14.615996	31.462477	27.115339
82	17	1	-0.200000	15.638168	30.276068	26.273418
83	17	1	-0.200000	12.903704	31.075876	26.832804
84	17	3	0.103000	14.828348	31.427312	28.203659
85	17	3	0.103000	14.834251	32.479135	26.728631
86	18	2	-0.006000	27.211677	34.992317	4.844233
87	18	1	-0.200000	25.815763	34.122341	5.519362
88	18	1	-0.200000	27.351580	36.584096	5.623913
89	18	3	0.103000	28.136289	34.407644	5.028684
90	18	3	0.103000	27.070763	35.126616	3.752044
91	19	2	-0.006000	12.847990	28.737959	9.761222
92	19	1	-0.200000	12.352047	30.070250	8.693386
93	19	1	-0.200000	11.488477	28.284343	10.813452
94	19	3	0.103000	13.148008	27.864015	9.147232
95	19	3	0.103000	13.705698	29.063647	10.384949
96	20	2	-0.006000	20.883972	11.511588	9.567086
97	20	1	-0.200000	20.965926	13.012181	8.616962
98	20	1	-0.200000	19.304892	10.734876	9.313200
99	20	3	0.103000	21.691119	10.823448	9.241897
100	20	3	0.103000	21.010967	11.748057	10.643527
101	21	2	-0.006000	26.173170	13.807151	21.709784
102	21	1	-0.200000	27.220231	14.950933	20.839922
103	21	1	-0.200000	24.763495	13.409745	20.701758
104	21	3	0.103000	26.741773	12.880842	21.932078
105	21	3	0.103000	25.830824	14.267753	22.659213
106	22	2	-0.006000	27.730439	8.245959	28.607039
107	22	1	-0.200000	26.730866	7.926805	30.042388
108	22	1	-0.200000	27.667829	6.842503	27.517257
109	22	3	0.103000	27.343874	9.141757	28.078943
110	22	3	0.103000	28.779760	8.424995	28.919515
111	23	2	-0.006000	29.358350	5.420003	19.528504
112	23	1	-0.200000	30.481886	6.425489	18.586220
113	23	1	-0.200000	29.635866	3.705492	19.148152
114	23	3	0.103000	29.528486	5.590803	20.611394
115	23	3	0.103000	28.314016	5.691606	19.270881
116	24	2	-0.006000	27.431203	33.906065	10.330436
117	24	1	-0.200000	28.637130	33.485173	11.567297
118	24	1	-0.200000	25.936898	34.455002	11.122238
119	24	3	0.103000	27.828810	34.718043	9.687496
120	24	3	0.103000	27.213534	33.014192	9.707577
121	25	2	-0.006000	33.547525	34.044684	7.045513
122	25	1	-0.200000	33.614850	32.986947	8.473061
123	25	1	-0.200000	33.205397	35.712161	7.559029
124	25	3	0.103000	34.521796	34.013401	6.515808
125	25	3	0.103000	32.744720	33.695514	6.364077
126	26	2	-0.006000	28.606365	9.909361	5.402756
127	26	1	-0.200000	29.837922	10.444213	6.568274
128	26	1	-0.200000	29.401870	9.140248	4.011042
129	26	3	0.103000	27.927751	9.179741	5.890515
130	26	3	0.103000	28.020176	10.785151	5.056134
131	27	2	-0.006000	29.928849	5.713561	8.942172
132	27	1	-0.200000	29.432715	4.028226	8.668805
133	27	1	-0.200000	31.702619	5.803091	9.025577
134	27	3	0.103000	29.565536	6.346210	8.106391
135	27	3	0.103000	29.494972	6.076626	9.896480
136	28	2	-0.006000	34.144311	17.947582	12.404554
137	28	1	-0.200000	33.300314	19.470256	12.765613
138	28	1	-0.200000	35.166399	18.163257	10.965786
139	28	3	0.103000	34.778243	17.662155	13.269097
140	28	3	0.103000	33.399260	17.148353	12.212457
141	29	2	-0.006000	32.800267	16.327724	22.844456
142	29	1	-0.200000	33.757151	17.748024	22.366594
143	29	1	-0.200000	31.220871	16.858627	23.464845
144	29	3	0.103000	32.649576	15.670029	21.963830
145	29	3	0.103000	33.339379	15.767949	23.636152
146	30	2	-0.006000	25.677263	32.709326	35.719988
147	30	1	-0.200000	24.303999	33.239991	34.723107
148	30	1	-0.200000	27.141706	32.625783	34.715170
149	30	3	0.103000	25.836186	33.432898	36.545795
150	30	3	0.103000	25.461449	31.706767	36.143156
151	31	2	-0.006000	30.786950	29.304264	19.061381
152	31	1	-0.200000	29.228110	28.558891	18.642251
153	31	1	-0.200000	31.285264	30.407868	17.759470
154	31	3	0.103000	30.682302	29.872781	20.008276
155	31	3	0.103000	31.553322	28.512225	19.188344
156	32	2	-0.006000	3.729441	30.878493	5.720377
157	32	1	-0.200000	3.699831	32.607431	6.134056
158	32	1	-0.200000	2.554622	30.558941	4.424646
159	32	3	0.103000	4.745880	30.598162	5.375359
160	32	3	0.103000	3.464515	30.279428	6.615757
161	33	2	-0.006000	7.428878	4.091651	4.491381
162	33	1	-0.200000	6.732212	5.005829	3.134854
163	33	1	-0.200000	9.041601	4.735256	4.873650
164	33	3	0.103000	6.771533	4.189608	5.379679
165	33	3	0.103000	7.514643	3.021702	4.210980
166	34	2	-0.006000	36.977556	19.917748	7.925208
167	34	1	-0.200000	36.133935	18.741477	6.892774
168	34	1	-0.200000	37.129781	21.463639	7.060175
169	34	3	0.103000	36.398943	20.071990	8.859117
170	34	3	0.103000	37.987573	19.532881	8.175238
171	35	2	-0.006000	12.195883	5.814095	9.770103
172	35	1	-0.200000	10.998284	4.739872	9.013113
173	35	1	-0.200000	13.788349	5.023363	9.764824
174	35	3	0.103000	12.252889	6.764216	9.200198
175	35	3	0.103000	11.892497	6.027626	10.815633
176	36	2	-0.006000	4.305590	22.710908	34.991603
177	36	1	-0.200000	2.883687	23.131345	35.972754
178	36	1	-0.200000	4.435985	20.942272	34.864500
179	36	3	0.103000	4.197358	23.147563	33.977508
180	36	3	0.103000	5.219669	23.115472	35.472809
181	37	2	-0.006000	18.159452	7.697529	9.945071
182	37	1	-0.200000	16.548777	8.403455	10.207039
183	37	1	-0.200000	19.401364	8.807942	10.566257
184	37	3	0.103000	18.229633	6.727909	10.479563
185	37	3	0.103000	18.319364	7.533832	8.859529
186	38	2	-0.006000	36.304555	35.869641	9.632663
187	38	1	-0.200000	35.243998	35.741465	11.053937
188	38	1	-0.200000	36.972859	37.514542	9.538308
189	38	3	0.103000	37.133781	35.138190	9.722856
190	38	3	0.103000	35.720080	35.654721	8.714530
191	39	2	-0.006000	27.217061	6.252105	16.392556
192	39	1	-0.200000	27.507594	4.498115	16.411090
193	39	1	-0.200000	28.767924	7.108134	16.240006
194	39	3	0.103000	26.566085	6.510043	15.532050
195	39	3	0.103000	26.719084	6.554457	17.336681
196	40	2	-0.006000	9.663313	24.466505	13.013407
197	40	1	-0.200000	9.343750	22.948854	13.882800
198	40	1	-0.200000	9.266867	24.258577	11.292701
199	40	3	0.103000	9.038079	25.276721	13.441665
200	40	3	0.103000	10.735306	24.732979	13.116332
201	41	2	-0.006000	23.940142	25.420249	31.078292
202	41	1	-0.200000	23.773459	26.703574	32.297524
203	41	1	-0.200000	22.410869	25.246168	30.188207
204	41	3	0.103000	24.751901	25.685954	30.370323
205	41	3	0.103000	24.186590	24.462422	31.580888
206	42	2	-0.006000	17.183400	32.824107	31.192113
207	42	1	-0.200000	17.845446	31.453306	32.110716
208	42	1	-0.200000	16.605670	34.070292	32.321043
209	42	3	0.103000	17.975342	33.251430	30.543272
210	42	3	0.103000	16.338848	32.474540	30.563380
211	43	2	-0.006000	18.980372	4.250410	11.488443
212	43	1	-0.200000	18.715696	4.241405	9.730291
213	43	1	-0.200000	17.862115	5.403857	12.250212
214	43	3	0.103000	18.797567	3.234558	11.895137
215	43	3	0.103000	20.026067	4.552177	11.703450
216	44	2	-0.006000	17.288653	23.937523	33.456448
217	44	1	-0.200000	17.478202	22.175384	33.598470
218	44	1	-0.200000	16.132567	24.509761	34.680065
219	44	3	0.103000	18.270205	24.429137	33.616577
220	44	3	0.103000	16.910179	24.188356	32.444217
221	45	2	-0.006000	7.386251	29.964840	10.127036
222	45	1	-0.200000	8.893279	29.021945	10.094643
223	45	1	-0.200000	7.766446	31.695198	9.976895
224	45	3	0.103000	6.737416	29.654142	9.282494
225	45	3	0.103000	6.857538	29.784194	11.085473
226	46	2	-0.006000	4.537524	5.913141	7.144921
227	46	1	-0.200000	4.028815	7.002429	8.454843
228	46	1	-0.200000	6.262119	5.524111	7.333761
229	46	3	0.103000	3.940797	4.978892	7.188134
230	46	3	0.103000	4.375591	6.410457	6.166542
231	47	2	-0.006000	14.081346	3.853460	36.332092
232	47	1	-0.200000	12.666958	2.781453	36.439514
233	47	1	-0.200000	13.549107	5.496179	35.908503
234	47	3	0.103000	14.604275	3.874871	37.310284
235	47	3	0.103000	14.773030	3.475949	35.551176
236	48	2	-0.006000	11.778778	16.625548	29.940248
237	48	1	-0.200000	11.907778	18.299800	29.355894
238	48	1	-0.200000	10.387191	16.486601	31.038160
239	48	3	0.103000	11.638691	15.942467	29.077377
240	48	3	0.103000	12.706666	16.350664	30.482682
241	49	2	-0.006000	36.167691	23.986991	22.379637
242	49	1	-0.200000	34.434742	24.289014	22.638289
243	49	1	-0.200000	36.515482	22.264087	22.647731
244	49	3	0.103000	36.439784	24.261737	21.339805
245	49	3	0.103000	36.759878	24.598815	23.090803
246	50	2	-0.006000	3.449890	20.517881	23.838427
247	50	1	-0.200000	2.796725	22.036769	23.184526
248	50	1	-0.200000	5.184691	20.409143	23.464432
249	50	3	0.103000	3.306696	20.496952	24.938349
250	50	3	0.103000	2.918188	19.658935	23.379868
251	51	2	-0.006000	20.096308	11.620974	18.751880
252	51	1	-0.200000	21.131310	11.118800	20.107544
253	51	1	-0.200000	18.910293	12.816216	19.322841
254	51	3	0.103000	20.723022	12.073010	17.955850
255	51	3	0.103000	19.563819	10.736492	18.345778
256	52	2	-0.006000	36.372162	3.524952	20.217444
257	52	1	-0.200000	36.397067	2.268258	18.959934
258	52	1	-0.200000	37.995855	4.230341	20.382609
259	52	3	0.103000	35.651327	4.318749	19.932745
260	52	3	0.103000	36.064343	3.075146	21.183722
261	53	2	-0.006000	8.617855	18.196481	28.398834
262	53	1	-0.200000	7.449139	16.881368	28.655372
263	53	1	-0.200000	9.133434	18.207612	26.697280
264	53	3	0.103000	8.142389	19.167488	28.647530
265	53	3	0.103000	9.500851	18.039105	29.051767
266	54	2	-0.006000	23.712909	33.824414	13.114913
267	54	1	-0.200000	25.298490	33.393484	13.794223
268	54	1	-0.200000	23.556415	33.127290	11.486798
269	54	3	0.103000	22.909904	33.424074	13.767357
270	54	3	0.103000	23.624223	34.928612	13.054483
271	55	2	-0.006000	25.620972	12.718610	11.167601
272	55	1	-0.200000	23.876655	13.034128	11.029618
273	55	1	-0.200000	26.491531	14.260828	11.325472
274	55	3	0.103000	25.813752	12.091849	12.062463
275	55	3	0.103000	25.973380	12.186223	10.260328
276	56	2	-0.006000	17.807069	11.902627	11.377569
277	56	1	-0.200000	17.593839	13.000471	9.995361
278	56	1	-0.200000	17.466975	12.777739	12.887452
279	56	3	0.103000	17.108286	11.046389	11.280973
280	56	3	0.103000	18.851102	11.527822	11.394503
281	57	2	-0.006000	6.481178	18.953576	33.980496
282	57	1	-0.200000	5.141847	18.326779	34.967688
283	57	1	-0.200000	7.378265	17.594308	33.267152
284	57	3	0.103000	6.075437	19.594403	33.170874
285	57	3	0.103000	7.162861	19.551970	34.619247
286	58	2	-0.006000	9.557095	32.647516	17.456289
287	58	1	-0.200000	10.867593	32.398730	16.280733
288	58	1	-0.200000	9.122092	34.370834	17.502998
289	58	3	0.103000	8.671788	32.050680	17.154976
290	58	3	0.103000	9.896129	32.324307	18.461954
291	59	2	-0.006000	9.174487	28.661562	14.799228
292	59	1	-0.200000	10.950574	28.611814	14.733870
293	59	1	-0.200000	8.545230	27.020906	15.070367
294	59	3	0.103000	8.853390	29.322792	15.630157
295	59	3	0.103000	8.780010	29.055071	13.839901
296	60	2	-0.006000	33.696466	33.530007	30.574875
297	60	1	-0.200000	32.672800	34.943690	30.235993
298	60	1	-0.200000	35.046628	34.014167	31.625535
299	60	3	0.103000	33.093325	32.750103	31.083541
300	60	3	0.103000	34.095889	33.125739	29.622091
301	61	2	-0.006000	36.436223	11.932566	20.883922
302	61	1	-0.200000	37.505364	11.403277	22.202263
303	61	1	-0.200000	35.641954	13.456333	21.340542
304	61	3	0.103000	37.034455	12.088924	19.962813
305	61	3	0.103000	35.666482	11.155695	20.697529
306	62	2	-0.006000	18.340898	6.280772	3.586217
307	62	1	-0.200000	18.480594	7.114643	2.022127
308	62	1	-0.200000	19.649954	6.817550	4.663004
309	62	3	0.103000	17.360860	6.521150	4.047211
310	62	3	0.103000	18.416975	5.185165	3.429278
311	63	2	-0.006000	36.211642	10.874963	16.464743
312	63	1	-0.200000	34.651270	11.319331	17.192072
313	63	1	-0.200000	37.092791	9.793477	17.567102
314	63	3	0.103000	36.035604	10.356178	15.500044
315	63	3	0.103000	36.811489	11.791284	16.287792
316	64	2	-0.006000	35.477693	36.204341	33.161129
317	64	1	-0.200000	34.822522	37.847785	33.337403
318	64	1	-0.200000	34.197432	35.016879	33.495941
319	64	3	0.103000	35.850660	36.064005	32.125768
320	64	3	0.103000	36.312355	36.060162	33.877595
321	65	2	-0.006000	32.827413	3.958336	19.974380
322	65	1	-0.200000	33.533685	3.288897	18.486340
323	65	1	-0.200000	33.697945	3.315249	21.384998
324	65	3	0.103000	32.913320	5.064305	19.959456
325	65	3	0.103000	31.757648	3.671327	20.037611
326	66	2	-0.006000	14.186719	19.485282	15.891064
327	66	1	-0.200000	13.327395	18.483799	14.699499
328	66	1	-0.200000	13.088987	20.737092	16.514913
329	66	3	0.103000	14.533827	18.846719	16.729231
330	66	3	0.103000	15.060730	19.967652	15.407127
331	67	2	-0.006000	33.376532	16.909213	16.868918
332	67	1	-0.200000	34.326570	17.500717	15.487332
333	67	1	-0.200000	31.756799	16.430973	16.313055
334	67	3	0.103000	33.886202	16.033260	17.320266
335	67	3	0.103000	33.284722	17.714493	17.626457
336	68	2	-0.006000	19.902900	29.272689	15.459116
337	68	1	-0.200000	18.223383	28.946406	14.975389
338	68	1	-0.200000	20.874723	27.797397	15.258358
339	68	3	0.103000	20.320668	30.080092	14.823236
340	68	3	0.103000	19.926705	29.589394	16.522084
341	69	2	-0.006000	10.329095	18.944495	15.177889
342	69	1	-0.200000	8.905364	19.987587	15.392792
343	69	1	-0.200000	9.892942	17.261923	15.551994
344	69	3	0.103000	10.680845	19.010610	14.127807
345	69	3	0.103000	11.137832	19.277388	15.860455
346	70	2	-0.006000	14.323196	21.151909	32.960020
347	70	1	-0.200000	15.139892	20.257585	34.261720
348	70	1	-0.200000	13.034881	20.142514	32.265327
349	70	3	0.103000	13.882177	22.083076	33.371363
350	70	3	0.103000	15.058484	21.408583	32.169931
351	71	2	-0.006000	30.825246	8.948929	26.413343
352	71	1	-0.200000	32.216118	8.045539	25.772566
353	71	1	-0.200000	31.276254	9.718922	27.951177
354	71	3	0.103000	30.522894	9.728447	25.684161
355	71	3	0.103000	29.978343	8.252646	26.582798
356	72	2	-0.006000	26.630300	22.267417	10.769188
357	72	1	-0.200000	26.881957	23.746882	11.722646
358	72	1	-0.200000	27.377243	22.460486	9.167304
359	72	3	0.103000	27.094980	21.406655	11.292574
360	72	3	0.103000	25.542536	22.084587	10.650391
361	73	2	-0.006000	30.531086	35.600388	9.392470
362	73	1	-0.200000	29.869741	33.958391	9.226030
363	73	1	-0.200000	29.240520	36.709734	9.907272
364	73	3	0.103000	31.340832	35.597806	10.150807
365	73	3	0.103000	30.939250	35.935322	8.416769
366	74	2	-0.006000	21.677439	21.299552	34.445189
367	74	1	-0.200000	22.196404	19.602455	34.336704
368	74	1	-0.200000	23.102843	22.360399	34.381491
369	74	3	0.103000	21.003005	21.534997	33.596380
370	74	3	0.103000	21.138669	21.461099	35.401432
371	75	2	-0.006000	4.920540	18.475634	11.989393
372	75	1	-0.200000	3.262646	19.100284	12.139164
373	75	1	-0.200000	6.065083	19.835700	11.951002
374	75	3	0.103000	5.149891	17.823690	12.857228
375	75	3	0.103000	5.011499	17.889200	11.052060
376	76	2	-0.006000	20.090246	5.439225	19.884913
377	76	1	-0.200000	20.127983	3.663102	19.956993
378	76	1	-0.200000	18.401793	5.996249	19.875795
379	76	3	0.103000	20.612516	5.856441	20.770315
380	76	3	0.103000	20.597953	5.782675	18.960226
381	77	2	-0.006000	29.458468	28.166832	24.746281
382	77	1	-0.200000	28.896977	26.480714	24.800729
383	77	1	-0.200000	30.828656	28.371473	25.860704
384	77	3	0.103000	29.780643	28.416172	23.714387
385	77	3	0.103000	28.631700	28.841872	25.048848
386	78	2	-0.006000	29.084232	36.307862	30.559021
387	78	1	-0.200000	30.773506	36.444502	31.096530
388	78	1	-0.200000	28.324962	34.903610	31.341846
389	78	3	0.103000	28.532182	37.229275	30.836527
390	78	3	0.103000	29.056000	36.177385	29.457681
391	79	2	-0.006000	27.346293	28.284141	21.985087
392	79	1	-0.200000	27.880098	29.801885	21.228294
393	79	1	-0.200000	28.341991	26.939628	21.383338
394	79	3	0.103000	27.455939	28.361489	23.086344
395	79	3	0.103000	26.282301	28.098703	21.731504
396	80	2	-0.006000	7.143147	7.178316	20.741547
397	80	1	-0.200000	8.034199	8.451875	19.878236
398	80	1	-0.200000	7.853889	5.594165	20.358737
399	80	3	0.103000	7.207241	7.358030	21.834418
400	80	3	0.103000	6.079601	7.192398	20.426203
401	81	2	-0.006000	20.363500	29.722369	32.694550
402	81	1	-0.200000	18.879837	28.754346	32.845904
403	81	1	-0.200000	20.582835	30.209579	30.998746
404	81	3	0.103000	20.281442	30.626952	33.331549
405	81	3	0.103000	21.234444	29.117793	33.021222
406	82	2	-0.006000	23.702938	10.723440	33.111585
407	82	1	-0.200000	22.843328	9.482157	32.172694
408	82	1	-0.200000	24.001990	12.142878	32.083482
409	82	3	0.103000	23.084927	11.021791	33.983262
410	82	3	0.103000	24.670713	10.313930	33.467229
411	83	2	-0.006000	14.460719	21.124457	21.208046
412	83	1	-0.200000	14.073376	22.717413	20.519794
413	83	1	-0.200000	15.545703	20.249773	20.103977
414	83	3	0.103000	14.960549	21.257298	22.189521
415	83	3	0.103000	13.525589	20.543446	21.344902
416	84	2	-0.006000	15.466724	6.226055	16.733095
417	84	1	-0.200000	15.385227	4.450522	16.778615
418	84	1	-0.200000	14.736340	6.814319	15.222560
419	84	3	0.103000	14.913030	6.643976	17.598853
420	84	3	0.103000	16.526996	6.548940	16.781445
421	85	2	-0.006000	34.798549	21.067021	24.825522
422	85	1	-0.200000	36.452870	20.753025	24.254679
423	85	1	-0.200000	34.034539	19.533519	25.300804
424	85	3	0.103000	34.832198	21.749817	25.699266
425	85	3	0.103000	34.209384	21.536985	24.011404
426	86	2	-0.006000	32.407098	16.868537	9.499833
427	86	1	-0.200000	33.897517	15.937426	9.229804
428	86	1	-0.200000	32.795278	18.602366	9.566049
429	86	3	0.103000	31.697462	16.679956	8.668193
430	86	3	0.103000	31.944568	16.556257	10.458643
431	87	2	-0.006000	34.138878	16.452227	34.349983
432	87	1	-0.200000	34.801992	14.963411	35.060572
433	87	1	-0.200000	35.157172	16.961783	32.984457
434	87	3	0.103000	33.106479	16.262619	33.990854
435	87	3	0.103000	34.122148	17.252854	35.117765
436	88	2	-0.006000	23.423528	3.295803	35.877867
437	88	1	-0.200000	22.108232	2.120516	36.101315
438	88	1	-0.200000	23.284705	4.042044	34.270047
439	88	3	0.103000	23.353553	4.081807	36.657658
440	88	3	0.103000	24.400812	2.777507	35.961866
441	89	2	-0.006000	18.455421	18.445475	35.430944
442	89	1	-0.200000	19.997994	19.136764	34.879745
443	89	1	-0.200000	17.108805	19.296036	34.640753
444	89	3	0.103000	18.417818	17.368403	35.167745
445	89	3	0.103000	18.370755	18.560497	36.531113
446	90	2	-0.006000	6.885979	29.646959	36.268578
447	90	1	-0.200000	8.518067	30.330772	36.441546
448	90	1	-0.200000	5.682922	30.952365	36.367581
449	90	3	0.103000	6.800179	29.138716	35.286183
450	90	3	0.103000	6.704080	28.914013	37.081273
451	91	2	-0.006000	4.883086	4.354029	22.832117
452	91	1	-0.200000	5.812452	5.374486	23.952910
453	91	1	-0.200000	5.909192	3.022188	22.253723
454	91	3	0.103000	3.998732	3.938277	23.357322
455	91	3	0.103000	4.547307	4.964070	21.968477
456	92	2	-0.006000	27.442416	30.380750	9.484070
457	92	1	-0.200000	29.000835	29.889470	10.184933
458	92	1	-0.200000	26.599185	28.948796	8.851850
459	92	3	0.103000	26.819879	30.860930	10.266787
460	92	3	0.103000	27.618707	31.100585	8.658522
461	93	2	-0.006000	29.145051	15.651750	9.644059
462	93	1	-0.200000	29.688521	17.189530	10.351947
463	93	1	-0.200000	27.391928	15.718947	9.355481
464	93	3	0.103000	29.671766	15.480539	8.682794
465	93	3	0.103000	29.373108	14.821524	10.343691
466	94	2	-0.006000	36.204015	21.314793	33.153099
467	94	1	-0.200000	34.605761	22.093776	33.153657
468	94	1	-0.200000	36.009784	19.563431	33.390242
469	94	3	0.103000	36.706792	21.502998	32.182240
470	94	3	0.103000	36.819675	21.733312	33.975641
471	95	2	-0.006000	8.913509	8.620251	33.602624
472	95	1	-0.200000	8.495778	6.893351	33.535190
473	95	1	-0.200000	7.425004	9.591949	33.565343
474	95	3	0.103000	9.468733	8.830085	34.539889
475	95	3	0.103000	9.547694	8.881633	32.730695
476	96	2	-0.006000	15.735317	2.622536	26.360565
477	96	1	-0.200000	16.702032	4.076219	26.697460
478	96	1	-0.200000	14.040174	3.087106	26.092425
479	96	3	0.103000	16.128605	2.118865	25.453696
480	96	3	0.103000	15.796536	1.929297	27.224534
481	97	2	-0.006000	34.777696	14.399048	30.465376
482	97	1	-0.200000	35.925675	13.042986	30.398517
483	97	1	-0.200000	35.674187	15.934428	30.477338
484	97	3	0.103000	34.113595	14.365494	29.577335
485	97	3	0.103000	34.166133	14.320716	31.387669
486	98	2	-0.006000	17.540569	27.400652	5.368239
487	98	1	-0.200000	17.993955	27.742018	3.683263
488	98	1	-0.200000	16.288390	28.550217	5.889563
489	98	3	0.103000	17.146996	26.366105	5.442957
490	98	3	0.103000	18.432556	27.504922	6.019589
491	99	2	-0.006000	13.267185	30.055629	15.636743
492	99	1	-0.200000	12.744881	31.399988	14.596969
493	99	1	-0.200000	11.900221	29.513813	16.636281
494	99	3	0.103000	13.619424	29.214611	15.004771
495	99	3	0.103000	14.093769	30.395893	16.293819
496	100	2	-0.006000	10.610235	27.005354	28.181442
497	100	1	-0.200000	11.945811	27.854256	28.991896
498	100	1	-0.200000	9.159103	27.068160	29.206871
499	100	3	0.103000	10.397196	27.494589	27.208799
500	100	3	0.103000	10.895376	25.947251	28.008572
501	101	2	-0.006000	19.946456	13.752691	4.726081
502	101	1	-0.200000	19.423607	12.371138	3.736550
503	101	1	-0.200000	21.722246	13.840944	4.729438
504	101	3	0.103000	19.530432	14.689692	4.302142
505	101	3	0.103000	19.580697	13.622655	5.765351
506	102	2	-0.006000	36.631092	18.108660	36.216835
507	102	1	-0.200000	35.123590	18.947172	36.647612
508	102	1	-0.200000	36.283809	16.395979	35.889189
509	102	3	0.103000	37.069014	18.576965	35.311470
510	102	3	0.103000	37.350476	18.185798	37.057849
511	103	2	-0.006000	18.900945	26.054040	28.051712
512	103	1	-0.200000	17.431080	27.054400	28.048631
513	103	1	-0.200000	18.854147	24.927706	26.676788
514	103	3	0.103000	19.793187	26.707510	27.964231
515	103	3	0.103000	18.955037	25.479171	28.999008
516	104	2	-0.006000	26.472593	22.554256	33.710003
517	104	1	-0.200000	25.435226	23.837369	34.372366
518	104	1	-0.200000	27.995620	23.264266	33.129050
519	104	3	0.103000	26.690559	21.809011	34.502387
520	104	3	0.103000	25.951596	22.055877	32.866824
521	105	2	-0.006000	27.515642	33.198776	25.139003
522	105	1	-0.200000	28.426860	34.722946	25.227439
523	105	1	-0.200000	28.650998	31.831173	25.095872
524	105	3	0.103000	26.860375	33.107471	26.029543
525	105	3	0.103000	26.893932	33.192390	24.220196
526	106	2	-0.006000	29.024895	14.970588	15.291802
527	106	1	-0.200000	29.376306	13.406390	14.523020
528	106	1	-0.200000	29.604001	16.287711	14.247267
529	106	3	0.103000	27.930280	15.071419	15.441544
530	106	3	0.103000	29.538905	15.023921	16.273494
531	107	2	-0.006000	24.912304	36.203671	9.110832
532	107	1	-0.200000	23.983019	36.900693	7.764793
533	107	1	-0.200000	25.353393	37.490627	10.255566
534	107	3	0.103000	24.295626	35.441849	9.630551
535	107	3	0.103000	25.833595	35.727574	8.716720
536	108	2	-0.006000	29.635291	16.447681	35.229430
537	108	1	-0.200000	30.895838	16.549877	33.979706
538	108	1	-0.200000	28.091930	17.026852	34.563223
539	108	3	0.103000	29.524236	15.393682	35.557338
540	108	3	0.103000	29.922810	17.076537	36.096981
541	109	2	-0.006000	31.420034	20.160640	23.736533
542	109	1	-0.200000	31.721764	19.342270	25.285875
543	109	1	-0.200000	30.321648	21.534486	23.996006
544	109	3	0.103000	32.380027	20.528345	23.319427
545	109	3	0.103000	30.957120	19.446342	23.025014
546	110	2	-0.006000	32.812423	8.824628	7.774631
547	110	1	-0.200000	33.489548	8.573656	6.149901
548	110	1	-0.200000	32.012829	10.411117	7.844876
549	110	3	0.103000	32.072593	8.027597	7.994098
550	110	3	0.103000	33.628667	8.788352	8.525098
551	111	2	-0.006000	36.285837	34.154970	15.190170
552	111	1	-0.200000	37.997850	34.277443	14.726227
553	111	1	-0.200000	35.981749	35.180913	16.610100
554	111	3	0.103000	35.649080	34.492627	14.346784
555	111	3	0.103000	36.044107	33.100748	15.437060
556	112	2	-0.006000	4.696462	22.741192	8.942018
557	112	1	-0.200000	3.563860	21.373968	9.037635
558	112	1	-0.200000	3.786443	24.248424	8.694332
559	112	3	0.103000	5.274596	22.809216	9.886425
560	112	3	0.103000	5.392837	22.585809	8.092495
561	113	2	-0.006000	4.966774	23.303520	12.846029
562	113	1	-0.200000	4.519598	23.991833	14.423207
563	113	1	-0.200000	6.625524	23.793690	12.434310
564	113	3	0.103000	4.909875	22.196708	12.896049
565	113	3	0.103000	4.267702	23.675007	12.068812
566	114	2	-0.006000	9.663235	20.974421	6.961513
567	114	1	-0.200000	9.832138	19.213292	6.785074
568	114	1	-0.200000	8.474547	21.331185	8.234687
569	114	3	0.103000	10.643718	21.414167	7.237281
570	114	3	0.103000	9.319055	21.410939	6.001428
571	115	2	-0.006000	25.279277	29.798991	34.655559
572	115	1	-0.200000	25.404402	28.452886	33.500753
573	115	1	-0.200000	23.580215	30.014068	35.133220
574	115	3	0.103000	25.890244	29.573689	35.553741
575	115	3	0.103000	25.650381	30.730006	34.179888
576	116	2	-0.006000	27.429725	10.394220	21.043873
577	116	1	-0.200000	28.581426	9.039686	21.036634
578	116	1	-0.200000	28.292079	11.907274	20.685762
579	116	3	0.103000	26.650628	10.221313	20.273234
580	116	3	0.103000	26.952135	10.468218	22.042473
581	117	2	-0.006000	7.226797	30.792467	30.993478
582	117	1	-0.200000	8.785746	31.519665	30.543931
583	117	1	-0.200000	7.392332	29.023083	31.049274
584	117	3	0.103000	6.918210	31.166660	31.991238
585	117	3	0.103000	6.459380	31.068552	30.241402
586	118	2	-0.006000	27.402321	14.105950	32.001749
587	118	1	-0.200000	26.663554	13.533450	30.489235
588	118	1	-0.200000	28.596531	12.915549	32.565698
589	118	3	0.103000	27.905568	15.078280	31.822616
590	118	3	0.103000	26.614896	14.233597	32.772748
591	119	2	-0.006000	36.897654	36.822611	19.025879
592	119	1	-0.200000	36.909547	37.957151	20.394787
593	119	1	-0.200000	35.351971	35.944382	18.997427
594	119	3	0.103000	37.020595	37.385614	18.077890
595	119	3	0.103000	37.731733	36.099681	19.137481
596	120	2	-0.006000	6.176191	18.695005	9.230244
597	120	1	-0.200000	4.795730	19.657417	9.804110
598	120	1	-0.200000	7.013910	19.575548	7.932514
599	120	3	0.103000	6.878675	18.518400	10.070541
600	120	3	0.103000	5.812356	17.721683	8.841607
601	121	2	-0.006000	10.312429	5.330163	23.369741
602	121	1	-0.200000	10.030953	4.714472	21.725683
603	121	1	-0.200000	11.812243	4.627992	24.016845
604	121	3	0.103000	10.404271	6.435358	23.340051
605	121	3	0.103000	9.460395	5.047260	24.021488
606	122	2	-0.006000	20.579649	14.647418	16.583332
607	122	1	-0.200000	21.929980	14.873740	17.717623
608	122	1	-0.200000	19.041290	14.715204	17.472200
609	122	3	0.103000	20.600539	15.450780	15.818515