DCM_octanol_50p.data - created by mBuild; units = real

3200 atoms
3000 bonds
5500 angles
6600 dihedrals
0 impropers

9 atom types
10 bond types
17 angle types
15 dihedral types

0.000000 40.000000 xlo xhi
0.000000 40.000000 ylo yhi
0.000000 40.000000 zlo zhi

Masses

1	12.010780	# opls_135
2	12.010780	# opls_136
3	1.007947	# opls_140
4	35.453200	# opls_151
5	12.010780	# opls_152
6	1.007947	# opls_153
7	15.999430	# opls_154
8	1.007947	# opls_155
9	12.010780	# opls_157

Pair Coeffs # lj
#	epsilon (kcal/mol)		sigma (Angstrom)
1	0.06600		3.50000		# opls_135
2	0.06600		3.50000		# opls_136
3	0.03000		2.50000		# opls_140
4	0.30000		3.40000		# opls_151
5	0.06600		3.50000		# opls_152
6	0.03000		2.50000		# opls_153
7	0.17000		3.12000		# opls_154
8	0.00000		10.00000		# opls_155
9	0.06600		3.50000		# opls_157

Bond Coeffs # harmonic
#	k(kcal/mol/angstrom^2)		req(angstrom)
1	245.0		1.781		# opls_151	opls_152
2	340.0		1.09		# opls_152	opls_153
3	268.0		1.529		# opls_135	opls_136
4	268.0		1.529		# opls_136	opls_136
5	268.0		1.529		# opls_136	opls_157
6	320.0		1.41		# opls_154	opls_157
7	340.0		1.09		# opls_135	opls_140
8	340.0		1.09		# opls_136	opls_140
9	340.0		1.09		# opls_140	opls_157
10	553.0		0.945		# opls_154	opls_155

Angle Coeffs # harmonic
#	k(kcal/mol/rad^2)		theteq(deg)
1	78.0		111.70000	# opls_151	opls_152	opls_151
2	51.0		107.60000	# opls_151	opls_152	opls_153
3	33.0		107.80000	# opls_153	opls_152	opls_153
4	58.35		112.70000	# opls_135	opls_136	opls_136
5	37.5		110.70000	# opls_135	opls_136	opls_140
6	37.5		110.70000	# opls_136	opls_135	opls_140
7	58.35		112.70000	# opls_136	opls_136	opls_136
8	37.5		110.70000	# opls_136	opls_136	opls_140
9	58.35		112.70000	# opls_136	opls_136	opls_157
10	50.0		109.50000	# opls_136	opls_157	opls_154
11	37.5		110.70000	# opls_136	opls_157	opls_140
12	37.5		110.70000	# opls_140	opls_136	opls_157
13	55.0		108.50000	# opls_155	opls_154	opls_157
14	35.0		109.50000	# opls_140	opls_157	opls_154
15	33.0		107.80000	# opls_140	opls_135	opls_140
16	33.0		107.80000	# opls_140	opls_136	opls_140
17	33.0		107.80000	# opls_140	opls_157	opls_140

Dihedral Coeffs # opls
#	f1(kcal/mol)	f2(kcal/mol)	f3(kcal/mol)	f4(kcal/mol)
1	1.30000	-0.05000		0.20000		-0.00000	# opls_135	opls_136	opls_136	opls_136
2	-0.00000	-0.00000		0.30000		-0.00000	# opls_135	opls_136	opls_136	opls_140
3	1.30000	-0.05000		0.20000		-0.00000	# opls_136	opls_136	opls_136	opls_136
4	-0.00000	-0.00000		0.30000		-0.00000	# opls_136	opls_136	opls_136	opls_140
5	-0.00000	-0.00000		0.30000		-0.00000	# opls_136	opls_136	opls_135	opls_140
6	1.30000	-0.05000		0.20000		-0.00000	# opls_136	opls_136	opls_136	opls_157
7	1.71100	-0.50000		0.66300		-0.00000	# opls_136	opls_136	opls_157	opls_154
8	-0.00000	-0.00000		0.30000		-0.00000	# opls_136	opls_136	opls_157	opls_140
9	-0.35600	-0.17400		0.49200		-0.00000	# opls_136	opls_157	opls_154	opls_155
10	-0.00000	-0.00000		0.30000		-0.00000	# opls_157	opls_136	opls_136	opls_140
11	0.00000	-0.00000		0.46800		-0.00000	# opls_154	opls_157	opls_136	opls_140
12	-0.00000	-0.00000		0.30000		-0.00000	# opls_140	opls_135	opls_136	opls_140
13	-0.00000	-0.00000		0.30000		-0.00000	# opls_140	opls_136	opls_136	opls_140
14	-0.00000	-0.00000		0.30000		-0.00000	# opls_140	opls_136	opls_157	opls_140
15	0.00000	-0.00000		0.45000		-0.00000	# opls_140	opls_157	opls_154	opls_155

Atoms # full

1	1	5	-0.006000	24.676256	21.597878	17.372120
2	1	4	-0.200000	25.658671	21.667337	15.891826
3	1	4	-0.200000	25.279732	20.297181	18.423422
4	1	6	0.103000	24.744476	22.567395	17.907054
5	1	6	0.103000	23.618509	21.396603	17.104858
6	2	5	-0.006000	20.627556	31.618304	31.247200
7	2	4	-0.200000	21.507096	30.392535	32.188015
8	2	4	-0.200000	21.644359	33.064969	31.061447
9	2	6	0.103000	20.380388	31.208995	30.246128
10	2	6	0.103000	19.691486	31.889784	31.777146
11	3	5	-0.006000	4.839956	24.261901	9.967870
12	3	4	-0.200000	6.421081	23.458786	10.095461
13	3	4	-0.200000	4.562986	24.761147	8.284043
14	3	6	0.103000	4.041450	23.558296	10.281080
15	3	6	0.103000	4.824723	25.155107	10.625685
16	4	5	-0.006000	28.799140	16.811346	29.716488
17	4	4	-0.200000	27.068172	16.414622	29.803634
18	4	4	-0.200000	28.997816	18.462266	29.087026
19	4	6	0.103000	29.245011	16.745947	30.730240
20	4	6	0.103000	29.309353	16.094179	29.041118
21	5	5	-0.006000	19.162132	2.918379	11.284350
22	5	4	-0.200000	17.640107	1.999899	11.251650
23	5	4	-0.200000	19.561739	3.461990	9.639348
24	5	6	0.103000	19.047702	3.800241	11.947672
25	5	6	0.103000	19.976902	2.270418	11.667844
26	6	5	-0.006000	11.867025	31.574149	28.196784
27	6	4	-0.200000	12.134697	29.816884	28.236807
28	6	4	-0.200000	10.120630	31.907377	28.179605
29	6	6	0.103000	12.323235	32.038264	29.095250
30	6	6	0.103000	12.333476	31.998574	27.284064
31	7	5	-0.006000	23.190709	18.881014	16.107834
32	7	4	-0.200000	24.783936	19.649031	15.926151
33	7	4	-0.200000	22.411666	18.748342	14.515125
34	7	6	0.103000	23.315793	17.868565	16.543808
35	7	6	0.103000	22.557608	19.497034	16.779007
36	8	5	-0.006000	9.614940	35.670737	12.207833
37	8	4	-0.200000	8.128774	35.684554	13.183718
38	8	4	-0.200000	10.238944	34.009223	12.101892
39	8	6	0.103000	9.391567	36.047560	11.188578
40	8	6	0.103000	10.376266	36.322006	12.684279
41	9	5	-0.006000	6.447970	11.062078	22.513035
42	9	4	-0.200000	7.106458	9.410825	22.544440
43	9	4	-0.200000	4.915272	11.071861	21.611939
44	9	6	0.103000	6.268581	11.408475	23.551592
45	9	6	0.103000	7.172828	11.739890	22.017129
46	10	5	-0.006000	23.995036	28.742594	20.133633
47	10	4	-0.200000	25.134587	30.037838	19.703520
48	10	4	-0.200000	22.369426	29.430274	20.347449
49	10	6	0.103000	23.972614	27.985514	19.323016
50	10	6	0.103000	24.320739	28.262412	21.079209
51	11	5	-0.006000	16.991358	21.273414	25.354617
52	11	4	-0.200000	17.844695	22.107566	24.036575
53	11	4	-0.200000	15.269766	21.716286	25.319748
54	11	6	0.103000	17.093669	20.176325	25.225385
55	11	6	0.103000	17.430801	21.573692	26.328010
56	12	5	-0.006000	22.382646	32.614841	6.901308
57	12	4	-0.200000	22.377125	33.932159	8.095409
58	12	4	-0.200000	23.378839	33.084392	5.505474
59	12	6	0.103000	22.802823	31.698185	7.363872
60	12	6	0.103000	21.344332	32.416565	6.564618
61	13	5	-0.006000	21.509695	26.608808	14.506579
62	13	4	-0.200000	20.170339	26.960289	13.391313
63	13	4	-0.200000	21.433664	27.719623	15.892776
64	13	6	0.103000	21.426672	25.562566	14.866101
65	13	6	0.103000	22.475859	26.742640	13.978009
66	14	5	-0.006000	8.823428	12.307478	7.682185
67	14	4	-0.200000	8.392283	13.766828	6.762597
68	14	4	-0.200000	7.471628	11.855883	8.745166
69	14	6	0.103000	9.034421	11.475987	6.978711
70	14	6	0.103000	9.724919	12.510173	8.296188
71	15	5	-0.006000	5.568073	31.473486	27.165271
72	15	4	-0.200000	6.739458	30.181176	26.820270
73	15	4	-0.200000	3.930909	30.914444	26.754910
74	15	6	0.103000	5.610831	31.733314	28.242969
75	15	6	0.103000	5.815943	32.368824	26.558888
76	16	5	-0.006000	28.937389	13.743724	31.366551
77	16	4	-0.200000	27.201253	14.022378	31.103081
78	16	4	-0.200000	29.582934	15.002565	32.443501
79	16	6	0.103000	29.085622	12.747496	31.831660
80	16	6	0.103000	29.469638	13.780621	30.393863
81	17	5	-0.006000	26.843852	27.473364	35.364639
82	17	4	-0.200000	26.729662	29.170480	34.846962
83	17	4	-0.200000	26.374162	26.410409	34.018997
84	17	6	0.103000	27.887320	27.248322	35.666803
85	17	6	0.103000	26.164701	27.302715	36.225106
86	18	5	-0.006000	4.259747	12.897375	27.038947
87	18	4	-0.200000	3.357099	11.376343	27.220390
88	18	4	-0.200000	6.004196	12.553800	27.029678
89	18	6	0.103000	3.973891	13.385439	26.084562
90	18	6	0.103000	4.020356	13.572747	27.885904
91	19	5	-0.006000	10.188695	21.058293	12.389314
92	19	4	-0.200000	11.581626	19.985099	12.126199
93	19	4	-0.200000	8.692790	20.208649	11.940309
94	19	6	0.103000	10.142314	21.348472	13.459088
95	19	6	0.103000	10.299327	21.967884	11.763874
96	20	5	-0.006000	9.287378	25.871474	13.643826
97	20	4	-0.200000	10.712444	26.442970	14.540382
98	20	4	-0.200000	9.739362	25.551031	11.954371
99	20	6	0.103000	8.907905	24.938274	14.108487
100	20	6	0.103000	8.495652	26.648027	13.673900
101	21	5	-0.006000	21.730851	27.064298	8.323103
102	21	4	-0.200000	23.230473	26.109245	8.338524
103	21	4	-0.200000	22.129637	28.791571	8.186250
104	21	6	0.103000	21.106959	26.759138	7.457997
105	21	6	0.103000	21.170214	26.887625	9.263977
106	22	5	-0.006000	27.446604	29.166310	5.778910
107	22	4	-0.200000	26.402661	29.784669	4.479277
108	22	4	-0.200000	27.699081	30.440385	6.993085
109	22	6	0.103000	26.962096	28.290405	6.257255
110	22	6	0.103000	28.424953	28.861416	5.353888
111	23	5	-0.006000	20.386476	26.863184	33.312323
112	23	4	-0.200000	18.614693	26.748798	33.406837
113	23	4	-0.200000	20.871350	28.573742	33.323304
114	23	6	0.103000	20.837482	26.345370	34.183663
115	23	6	0.103000	20.738448	26.385054	32.375158
116	24	5	-0.006000	10.491649	34.816987	33.600193
117	24	4	-0.200000	10.916796	34.368238	35.267259
118	24	4	-0.200000	11.878340	35.621061	32.830916
119	24	6	0.103000	10.228867	33.904155	33.027084
120	24	6	0.103000	9.623923	35.508112	33.613121
121	25	5	-0.006000	6.951345	28.375491	9.861083
122	25	4	-0.200000	7.088078	26.826658	10.723436
123	25	4	-0.200000	6.768528	29.695204	11.038438
124	25	6	0.103000	7.865815	28.543811	9.255951
125	25	6	0.103000	6.065630	28.350131	9.193523
126	26	5	-0.006000	6.090745	29.681634	7.139581
127	26	4	-0.200000	6.321448	30.839549	5.810205
128	26	4	-0.200000	6.731197	30.374269	8.646667
129	26	6	0.103000	5.008751	29.468732	7.260959
130	26	6	0.103000	6.629176	28.739871	6.907319
131	27	5	-0.006000	8.056935	33.632148	18.482861
132	27	4	-0.200000	7.882464	33.345630	20.228913
133	27	4	-0.200000	9.269340	34.903520	18.209149
134	27	6	0.103000	8.383959	32.696027	17.985362
135	27	6	0.103000	7.082285	33.953761	18.061681
136	28	5	-0.006000	12.414344	32.407054	16.634388
137	28	4	-0.200000	13.592055	31.140176	16.222987
138	28	4	-0.200000	13.213209	33.994921	16.592862
139	28	6	0.103000	11.583168	32.391933	15.899753
140	28	6	0.103000	12.012221	32.221891	17.651630
141	29	5	-0.006000	22.995640	24.690968	31.748198
142	29	4	-0.200000	22.730140	24.432432	30.009262
143	29	4	-0.200000	24.671795	24.265606	32.161479
144	29	6	0.103000	22.812823	25.756834	31.995747
145	29	6	0.103000	22.298268	24.051827	32.327803
146	30	5	-0.006000	35.063160	30.376209	28.996406
147	30	4	-0.200000	36.798942	30.567529	28.662205
148	30	4	-0.200000	34.364095	29.209908	27.850858
149	30	6	0.103000	34.924799	30.005053	30.032683
150	30	6	0.103000	34.554654	31.355713	28.883430
151	31	5	-0.006000	20.027169	3.673134	31.443523
152	31	4	-0.200000	18.759386	2.671821	30.701008
153	31	4	-0.200000	21.058462	2.655508	32.474108
154	31	6	0.103000	20.644223	4.138637	30.647707
155	31	6	0.103000	19.557677	4.467364	32.059596
156	32	5	-0.006000	5.484825	6.774938	4.410305
157	32	4	-0.200000	6.734726	6.278062	3.247509
158	32	4	-0.200000	6.112715	8.089361	5.429755
159	32	6	0.103000	4.588426	7.129038	3.860892
160	32	6	0.103000	5.209561	5.910724	5.049158
161	33	5	-0.006000	5.402366	37.395643	21.314676
162	33	4	-0.200000	4.917759	37.884231	22.954087
163	33	4	-0.200000	4.212314	38.000000	20.140043
164	33	6	0.103000	6.400372	37.820619	21.081973
165	33	6	0.103000	5.449276	36.288717	21.257376
166	34	5	-0.006000	7.868140	11.456360	3.469956
167	34	4	-0.200000	7.532918	9.716774	3.319302
168	34	4	-0.200000	9.597412	11.699934	3.803906
169	34	6	0.103000	7.598632	11.968239	2.523321
170	34	6	0.103000	7.267820	11.877931	4.302220
171	35	5	-0.006000	9.731530	4.078126	23.467015
172	35	4	-0.200000	8.735646	5.441108	24.025338
173	35	4	-0.200000	11.358340	4.663562	23.052303
174	35	6	0.103000	9.805825	3.319733	24.273298
175	35	6	0.103000	9.263564	3.620786	22.571125
176	36	5	-0.006000	34.556514	18.447795	7.447520
177	36	4	-0.200000	36.194253	19.138742	7.487930
178	36	4	-0.200000	34.635268	16.713617	7.831783
179	36	6	0.103000	33.919013	18.963560	8.194749
180	36	6	0.103000	34.122994	18.582962	6.435314
181	37	5	-0.006000	10.018909	36.794102	36.336294
182	37	4	-0.200000	10.215674	35.757365	37.767270
183	37	4	-0.200000	8.417130	36.513968	35.617226
184	37	6	0.103000	10.108844	37.858560	36.635648
185	37	6	0.103000	10.805645	36.551317	35.592740
186	38	5	-0.006000	10.403775	27.809872	6.908783
187	38	4	-0.200000	9.551382	26.850548	5.678191
188	38	4	-0.200000	12.076425	28.099992	6.380291
189	38	6	0.103000	9.885278	28.781140	7.045060
190	38	6	0.103000	10.410466	27.256160	7.870099
191	39	5	-0.006000	17.979895	9.653905	24.467008
192	39	4	-0.200000	18.339328	11.302035	23.905130
193	39	4	-0.200000	17.531395	9.698723	26.186913
194	39	6	0.103000	17.138522	9.237034	23.876177
195	39	6	0.103000	18.876841	9.014448	24.335281
196	40	5	-0.006000	12.515349	24.136881	25.679660
197	40	4	-0.200000	12.810948	22.517613	26.351840
198	40	4	-0.200000	11.951264	23.987460	24.000162
199	40	6	0.103000	11.742052	24.653027	26.284950
200	40	6	0.103000	13.456170	24.724321	25.702892
201	41	5	-0.006000	32.507258	17.455614	32.514936
202	41	4	-0.200000	33.626231	16.147018	32.958456
203	41	4	-0.200000	32.189122	18.471473	33.939033
204	41	6	0.103000	32.960727	18.074132	31.713330
205	41	6	0.103000	31.554100	17.019751	32.151227
206	42	5	-0.006000	31.699403	18.427131	4.658827
207	42	4	-0.200000	32.858959	18.821689	3.370035
208	42	4	-0.200000	30.919134	19.918763	5.231058
209	42	6	0.103000	30.928193	17.734716	4.263140
210	42	6	0.103000	32.233953	17.942644	5.501620
211	43	5	-0.006000	10.411440	17.631505	23.340040
212	43	4	-0.200000	11.915639	17.786346	22.404818
213	43	4	-0.200000	9.021318	17.635418	22.231538
214	43	6	0.103000	10.426905	16.680092	23.910432
215	43	6	0.103000	10.324795	18.483861	24.044847
216	44	5	-0.006000	34.453168	8.058306	29.806290
217	44	4	-0.200000	35.188860	9.656391	29.549163
218	44	4	-0.200000	33.007509	7.899893	28.783448
219	44	6	0.103000	35.183831	7.267485	29.538886
220	44	6	0.103000	34.165494	7.950833	30.872340
221	45	5	-0.006000	10.528557	4.248772	5.764999
222	45	4	-0.200000	9.014975	4.828831	6.495637
223	45	4	-0.200000	11.679326	3.816813	7.049667
224	45	6	0.103000	10.319348	3.356068	5.140431
225	45	6	0.103000	10.964145	5.049066	5.132099
226	46	5	-0.006000	6.758664	14.542594	2.967682
227	46	4	-0.200000	8.220174	14.033455	2.092469
228	46	4	-0.200000	5.982928	15.884027	2.095889
229	46	6	0.103000	6.053000	13.689354	3.036902
230	46	6	0.103000	7.036433	14.876518	3.988519
231	47	5	-0.006000	36.191427	11.048130	17.025168
232	47	4	-0.200000	37.531477	9.977926	16.555956
233	47	4	-0.200000	36.845458	12.531979	17.754325
234	47	6	0.103000	35.594878	11.309314	16.127011
235	47	6	0.103000	35.543754	10.528851	17.761129
236	48	5	-0.006000	29.669410	36.083701	23.824130
237	48	4	-0.200000	31.395042	35.687223	23.662165
238	48	4	-0.200000	29.418196	37.045926	25.297984
239	48	6	0.103000	29.339656	36.667808	22.940472
240	48	6	0.103000	29.079190	35.146591	23.889225
241	49	5	-0.006000	22.769358	3.093212	21.968627
242	49	4	-0.200000	21.228029	2.460258	22.589035
243	49	4	-0.200000	22.666598	3.277812	20.203239
244	49	6	0.103000	22.977480	4.079451	22.432080
245	49	6	0.103000	23.587078	2.386727	22.219593
246	50	5	-0.006000	23.831619	20.387506	12.339136
247	50	4	-0.200000	24.361276	21.783922	11.374400
248	50	4	-0.200000	22.090192	20.522913	12.671292
249	50	6	0.103000	24.028996	19.452483	11.775624
250	50	6	0.103000	24.390334	20.366735	13.297351
251	51	5	-0.006000	18.232352	36.492654	3.427195
252	51	4	-0.200000	16.980089	35.709088	2.437702
253	51	4	-0.200000	17.472005	37.291329	4.821907
254	51	6	0.103000	18.952200	35.728466	3.785814
255	51	6	0.103000	18.768288	37.247413	2.815736
256	52	5	-0.006000	21.290717	9.112330	18.163864
257	52	4	-0.200000	19.986031	10.171856	18.743889
258	52	4	-0.200000	20.591267	7.755852	17.251740
259	52	6	0.103000	21.970558	9.689952	17.504364
260	52	6	0.103000	21.861372	8.719992	19.030578
261	53	5	-0.006000	28.822587	24.509014	33.625159
262	53	4	-0.200000	27.784465	25.513678	32.588729
263	53	4	-0.200000	28.111322	24.402698	35.251207
264	53	6	0.103000	28.905350	23.491673	33.190488
265	53	6	0.103000	29.831366	24.965825	33.691933
266	54	5	-0.006000	2.702390	25.734322	12.924047
267	54	4	-0.200000	2.288453	24.776608	14.363725
268	54	4	-0.200000	2.595476	24.706162	11.477434
269	54	6	0.103000	1.993945	26.582644	12.827984
270	54	6	0.103000	3.735823	26.125102	13.024437
271	55	5	-0.006000	10.953407	17.593739	12.384626
272	55	4	-0.200000	10.163988	16.069718	12.848748
273	55	4	-0.200000	11.680394	18.346340	13.822093
274	55	6	0.103000	11.744857	17.386977	11.635207
275	55	6	0.103000	10.200914	18.281833	11.947533
276	56	5	-0.006000	12.240042	5.432963	18.094791
277	56	4	-0.200000	12.179209	6.965688	18.993837
278	56	4	-0.200000	12.163967	4.072498	19.236974
279	56	6	0.103000	11.378959	5.378891	17.397380
280	56	6	0.103000	13.186551	5.379550	17.518563
281	57	5	-0.006000	34.253796	9.697673	33.290777
282	57	4	-0.200000	33.812151	8.224382	34.182740
283	57	4	-0.200000	35.829039	9.462270	32.500570
284	57	6	0.103000	33.482494	9.909786	32.522095
285	57	6	0.103000	34.317781	10.551711	33.995969
286	58	5	-0.006000	18.383945	10.578002	29.478970
287	58	4	-0.200000	17.094124	11.776936	29.233712
288	58	4	-0.200000	17.660571	8.977831	29.757205
289	58	6	0.103000	19.029910	10.540191	28.577820
290	58	6	0.103000	18.994127	10.866168	30.359542
291	59	5	-0.006000	15.036012	34.263130	33.712850
292	59	4	-0.200000	16.189636	32.919845	33.551703
293	59	4	-0.200000	14.788302	35.025231	32.125690
294	59	6	0.103000	14.068096	33.875838	34.092212
295	59	6	0.103000	15.438674	35.013058	34.424356
296	60	5	-0.006000	30.292040	36.365085	12.029173
297	60	4	-0.200000	32.033167	36.718689	12.097519
298	60	4	-0.200000	30.043636	34.604638	12.047992
299	60	6	0.103000	29.787752	36.819109	12.906856
300	60	6	0.103000	29.864931	36.788871	11.097104
301	61	5	-0.006000	20.473545	17.460372	6.198384
302	61	4	-0.200000	20.186518	15.734216	6.513401
303	61	4	-0.200000	20.959935	17.680432	4.502438
304	61	6	0.103000	19.542694	18.031618	6.393233
305	61	6	0.103000	21.280002	17.828865	6.865175
306	62	5	-0.006000	17.176210	35.577980	36.268995
307	62	4	-0.200000	16.294972	34.035320	36.199355
308	62	4	-0.200000	18.840620	35.285301	36.821544
309	62	6	0.103000	17.197134	36.037806	35.259592
310	62	6	0.103000	16.666622	36.263329	36.977082
311	63	5	-0.006000	33.053784	31.876777	4.162907
312	63	4	-0.200000	32.968233	30.632389	5.429956
313	63	4	-0.200000	31.786119	33.092392	4.439557
314	63	6	0.103000	34.048703	32.366717	4.192339
315	63	6	0.103000	32.903215	31.404789	3.170270
316	64	5	-0.006000	20.562088	14.597781	20.450724
317	64	4	-0.200000	20.831483	15.569191	18.986135
318	64	4	-0.200000	19.000069	13.757724	20.325690
319	64	6	0.103000	21.376202	13.851277	20.554273
320	64	6	0.103000	20.554517	15.262327	21.339033
321	65	5	-0.006000	15.444218	32.743280	17.243064
322	65	4	-0.200000	16.065677	31.114570	17.592812
323	65	4	-0.200000	16.754125	33.930601	17.431866
324	65	6	0.103000	15.061338	32.777405	16.202387
325	65	6	0.103000	14.622009	32.984564	17.947709
326	66	5	-0.006000	18.299001	22.126829	30.311038
327	66	4	-0.200000	19.137670	22.216597	28.745852
328	66	4	-0.200000	16.552450	22.346553	30.061012
329	66	6	0.103000	18.484541	21.135719	30.773690
330	66	6	0.103000	18.679940	22.924829	30.981002
331	67	5	-0.006000	14.865187	10.348783	17.848735
332	67	4	-0.200000	14.460826	11.619703	16.672942
333	67	4	-0.200000	14.267368	8.782263	17.257246
334	67	6	0.103000	15.966110	10.300066	17.976659
335	67	6	0.103000	14.389580	10.581943	18.823520
336	68	5	-0.006000	13.830937	14.213610	21.443993
337	68	4	-0.200000	15.415224	13.471644	21.761412
338	68	4	-0.200000	12.652008	12.944695	21.042479
339	68	6	0.103000	13.491520	14.761366	22.347060
340	68	6	0.103000	13.917428	14.920559	20.593397
341	69	5	-0.006000	33.218376	30.302479	11.155249
342	69	4	-0.200000	32.783699	31.768188	10.247513
343	69	4	-0.200000	34.917890	30.404830	11.667506
344	69	6	0.103000	32.567345	30.214469	12.049220
345	69	6	0.103000	33.080202	29.412086	10.508040
346	70	5	-0.006000	26.904431	26.790220	22.282594
347	70	4	-0.200000	27.172692	28.226178	23.296149
348	70	4	-0.200000	28.332193	26.511181	21.260408
349	70	6	0.103000	26.735455	25.906136	22.931142
350	70	6	0.103000	26.015162	26.952434	21.639433
351	71	5	-0.006000	11.010439	29.308101	36.256336
352	71	4	-0.200000	12.065024	30.684928	35.864635
353	71	4	-0.200000	9.770958	29.823811	37.422082
354	71	6	0.103000	10.518925	28.943749	35.330900
355	71	6	0.103000	11.617320	28.491589	36.698802
356	72	5	-0.006000	8.810745	21.441898	20.461772
357	72	4	-0.200000	10.552113	21.791142	20.544815
358	72	4	-0.200000	8.555409	19.683398	20.522725
359	72	6	0.103000	8.296283	21.920260	21.320416
360	72	6	0.103000	8.397985	21.842851	19.513281
361	73	5	-0.006000	34.644894	4.892926	18.925877
362	73	4	-0.200000	34.547425	6.622554	19.326026
363	73	4	-0.200000	35.031901	4.704622	17.200769
364	73	6	0.103000	35.438506	4.416103	19.537099
365	73	6	0.103000	33.670622	4.408028	19.141374
366	74	5	-0.006000	11.698625	21.015363	4.911581
367	74	4	-0.200000	10.871224	22.440056	5.580079
368	74	4	-0.200000	11.306481	20.858399	3.184498
369	74	6	0.103000	12.795027	21.133832	5.032571
370	74	6	0.103000	11.363166	20.105883	5.451104
371	75	5	-0.006000	19.679543	29.403222	27.430646
372	75	4	-0.200000	18.230361	29.100053	28.415121
373	75	4	-0.200000	21.108427	29.476329	28.486192
374	75	6	0.103000	19.805006	28.582564	26.694744
375	75	6	0.103000	19.566745	30.367428	26.893660
376	76	5	-0.006000	24.716513	29.404677	36.492136
377	76	4	-0.200000	23.784802	30.588470	37.436476
378	76	4	-0.200000	24.611489	29.810295	34.764225
379	76	6	0.103000	25.778037	29.428245	36.813666
380	76	6	0.103000	24.301867	28.389382	36.659519
381	77	5	-0.006000	30.630270	29.674562	28.795641
382	77	4	-0.200000	30.645061	28.605201	30.216021
383	77	4	-0.200000	32.285711	29.855428	28.172716
384	77	6	0.103000	29.984817	29.234325	28.008017
385	77	6	0.103000	30.233570	30.669184	29.085688
386	78	5	-0.006000	22.183089	7.336177	6.134683
387	78	4	-0.200000	23.470916	8.561951	6.149219
388	78	4	-0.200000	21.252047	7.472608	4.626114
389	78	6	0.103000	22.634385	6.324858	6.200541
390	78	6	0.103000	21.509173	7.497538	7.001038
391	79	5	-0.006000	20.773324	20.004951	29.472036
392	79	4	-0.200000	21.229385	21.613441	30.077017
393	79	4	-0.200000	22.035172	19.405805	28.372038
394	79	6	0.103000	20.664949	19.305578	30.326379
395	79	6	0.103000	19.809796	20.074537	28.926562
396	80	5	-0.006000	32.894362	23.568682	10.593289
397	80	4	-0.200000	33.286747	25.182927	9.959666
398	80	4	-0.200000	31.184974	23.522561	11.080215
399	80	6	0.103000	33.075233	22.808348	9.805920
400	80	6	0.103000	33.535245	23.350572	11.472191
401	81	5	-0.006000	34.582568	14.862855	20.986930
402	81	4	-0.200000	35.463137	14.903471	22.531009
403	81	4	-0.200000	34.244948	13.175020	20.541444
404	81	6	0.103000	33.626611	15.415968	21.091732
405	81	6	0.103000	35.199747	15.337536	20.196653
406	82	5	-0.006000	22.036966	13.981915	6.863350
407	82	4	-0.200000	22.365022	15.728781	6.817829
408	82	4	-0.200000	20.350363	13.708262	7.354996
409	82	6	0.103000	22.203570	13.547990	5.856015
410	82	6	0.103000	22.718038	13.496618	7.592321
411	83	5	-0.006000	16.899091	34.403475	21.771944
412	83	4	-0.200000	16.668828	34.134064	23.514250
413	83	4	-0.200000	17.918871	33.110258	21.101967
414	83	6	0.103000	15.913128	34.397869	21.263400
415	83	6	0.103000	17.392428	35.384095	21.611402
416	84	5	-0.006000	26.612925	32.537655	17.174247
417	84	4	-0.200000	28.094523	33.512510	17.299767
418	84	4	-0.200000	27.004687	30.825662	17.451442
419	84	6	0.103000	25.881039	32.877500	17.935574
420	84	6	0.103000	26.175913	32.657751	16.161642
421	85	5	-0.006000	9.757674	34.723462	15.282135
422	85	4	-0.200000	8.858127	36.254810	15.198357
423	85	4	-0.200000	11.312736	34.993623	16.100688
424	85	6	0.103000	9.165324	33.977238	15.850504
425	85	6	0.103000	9.941011	34.345620	14.255299
426	86	5	-0.006000	34.547756	22.904211	3.677536
427	86	4	-0.200000	33.321833	22.033592	4.626413
428	86	4	-0.200000	34.148181	22.792835	1.948616
429	86	6	0.103000	34.565286	23.969975	3.985125
430	86	6	0.103000	35.544470	22.451170	3.856661
431	87	5	-0.006000	35.861555	19.608449	19.787717
432	87	4	-0.200000	34.252823	18.928597	19.454528
433	87	4	-0.200000	36.275005	20.796042	18.530770
434	87	6	0.103000	35.854484	20.106471	20.779027
435	87	6	0.103000	36.614431	18.793620	19.788584
436	88	5	-0.006000	35.614668	4.753155	28.943854
437	88	4	-0.200000	36.789577	3.456744	29.260302
438	88	4	-0.200000	36.434088	6.113348	28.144067
439	88	6	0.103000	34.808175	4.368859	28.286088
440	88	6	0.103000	35.176785	5.097655	29.903202
441	89	5	-0.006000	36.232161	5.699522	4.960184
442	89	4	-0.200000	35.484932	4.304612	5.770804
443	89	4	-0.200000	35.140527	7.099195	5.062574
444	89	6	0.103000	37.194087	5.943724	5.456001
445	89	6	0.103000	36.417608	5.452350	3.894686
446	90	5	-0.006000	23.096088	29.026237	30.721434
447	90	4	-0.200000	21.510260	28.325430	31.115453
448	90	4	-0.200000	24.241168	27.721876	30.335863
449	90	6	0.103000	22.995269	29.700515	29.846245
450	90	6	0.103000	23.471915	29.603099	31.591350
451	91	5	-0.006000	10.064628	29.348690	16.548453
452	91	4	-0.200000	10.103614	30.806522	15.531380
453	91	4	-0.200000	8.377321	28.851094	16.806571
454	91	6	0.103000	10.618319	28.530610	16.043535
455	91	6	0.103000	10.539420	29.567623	17.526927
456	92	5	-0.006000	9.824039	36.358236	21.046499
457	92	4	-0.200000	10.356999	36.989346	19.472052
458	92	4	-0.200000	10.428950	37.413328	22.343456
459	92	6	0.103000	8.715408	36.331711	21.078195
460	92	6	0.103000	10.222687	35.332642	21.187947
461	93	5	-0.006000	33.771124	8.578793	8.238625
462	93	4	-0.200000	35.070832	7.443848	7.809800
463	93	4	-0.200000	34.455141	10.203802	8.468191
464	93	6	0.103000	33.019642	8.605731	7.422953
465	93	6	0.103000	33.284845	8.246077	9.178627
466	94	5	-0.006000	34.458246	15.151225	3.505879
467	94	4	-0.200000	34.687424	16.912158	3.594345
468	94	4	-0.200000	32.731583	14.768390	3.688371
469	94	6	0.103000	34.817470	14.780424	2.523924
470	94	6	0.103000	35.033389	14.662152	4.318768
471	95	5	-0.006000	26.841474	35.311025	14.394428
472	95	4	-0.200000	25.840590	36.768403	14.582872
473	95	4	-0.200000	27.141611	35.017527	12.666710
474	95	6	0.103000	27.808541	35.456286	14.918310
475	95	6	0.103000	26.311645	34.439551	14.830988
476	96	5	-0.006000	32.091284	17.744718	27.676937
477	96	4	-0.200000	33.707516	18.308178	28.158120
478	96	4	-0.200000	32.208233	16.093672	27.027628
479	96	6	0.103000	31.420308	17.747972	28.560426
480	96	6	0.103000	31.680827	18.420070	26.898352
481	97	5	-0.006000	5.829795	11.913213	31.125204
482	97	4	-0.200000	5.892840	13.650158	30.750665
483	97	4	-0.200000	4.210444	11.283847	30.747273
484	97	6	0.103000	6.586480	11.376099	30.517169
485	97	6	0.103000	6.044178	11.759245	32.202750
486	98	5	-0.006000	14.534873	10.172451	27.198585
487	98	4	-0.200000	13.397575	10.400591	28.546078
488	98	4	-0.200000	15.564812	8.760381	27.524954
489	98	6	0.103000	13.967446	10.007208	26.259706
490	98	6	0.103000	15.169286	11.076415	27.093045
491	99	5	-0.006000	29.258373	20.633730	14.253603
492	99	4	-0.200000	29.941587	19.125973	13.604666
493	99	4	-0.200000	29.112400	21.829341	12.945766
494	99	6	0.103000	28.255654	20.430758	14.682704
495	99	6	0.103000	29.925875	21.031469	15.045446
496	100	5	-0.006000	4.719351	35.667287	17.524294
497	100	4	-0.200000	4.689138	37.225277	16.668148
498	100	4	-0.200000	3.278540	35.530538	18.557056
499	100	6	0.103000	4.724841	34.839505	16.785702
500	100	6	0.103000	5.631717	35.608274	18.152686
501	101	1	-0.180000	36.962453	14.208512	27.777207
502	101	2	-0.120000	35.990060	15.353896	28.058908
503	101	2	-0.120000	36.487966	16.704895	27.521574
504	101	2	-0.120000	36.403041	16.796016	25.988148
505	101	2	-0.120000	36.911402	18.142479	25.447628
506	101	2	-0.120000	35.938535	19.299089	25.723389
507	101	2	-0.120000	36.416244	20.589920	25.044203
508	101	9	0.145000	35.505435	21.778597	25.365523
509	101	7	-0.683000	34.239468	21.604997	24.786362
510	101	3	0.060000	36.609602	13.290864	28.293350
511	101	3	0.060000	37.014539	13.992624	26.690340
512	101	3	0.060000	37.976913	14.457098	28.155108
513	101	3	0.060000	34.994172	15.112937	27.627500
514	101	3	0.060000	35.866229	15.439011	29.160423
515	101	3	0.060000	35.851905	17.496138	27.970560
516	101	3	0.060000	37.533532	16.881104	27.856996
517	101	3	0.060000	37.032570	15.998444	25.540656
518	101	3	0.060000	35.356127	16.626419	25.653633
519	101	3	0.060000	37.908011	18.372190	25.884743
520	101	3	0.060000	37.042473	18.041617	24.347664
521	101	3	0.060000	35.865800	19.475527	26.817388
522	101	3	0.060000	34.931209	19.030179	25.337576
523	101	3	0.060000	37.443784	20.829891	25.395425
524	101	3	0.060000	36.452787	20.445416	23.942090
525	101	3	0.060000	35.429532	21.926519	26.468037
526	101	3	0.060000	35.959919	22.697945	24.939455
527	101	8	0.418000	33.674279	21.145671	25.460793
528	102	1	-0.180000	29.694558	30.124403	23.607475
529	102	2	-0.120000	29.923589	29.053500	22.540928
530	102	2	-0.120000	30.650260	27.814076	23.086471
531	102	2	-0.120000	29.749096	26.952461	23.987821
532	102	2	-0.120000	30.477529	25.718082	24.543923
533	102	2	-0.120000	30.709016	24.634866	23.479349
534	102	2	-0.120000	31.306997	23.368683	24.107794
535	102	9	0.145000	31.619588	22.299014	23.057142
536	102	7	-0.683000	30.437721	21.802072	22.487514
537	102	3	0.060000	29.281248	31.037430	23.129415
538	102	3	0.060000	28.966265	29.775346	24.367966
539	102	3	0.060000	30.651683	30.389756	24.104699
540	102	3	0.060000	28.950159	28.760403	22.090932
541	102	3	0.060000	30.545713	29.497398	21.733568
542	102	3	0.060000	30.979065	27.210792	22.214598
543	102	3	0.060000	31.560546	28.126399	23.643785
544	102	3	0.060000	29.413814	27.559877	24.854602
545	102	3	0.060000	28.842219	26.634783	23.428048
546	102	3	0.060000	31.448497	26.023462	24.992286
547	102	3	0.060000	29.851840	25.289904	25.357834
548	102	3	0.060000	31.407462	25.014160	22.703743
549	102	3	0.060000	29.740160	24.384255	22.995220
550	102	3	0.060000	32.251350	23.631470	24.633078
551	102	3	0.060000	30.600203	22.949064	24.856948
552	102	3	0.060000	32.305353	22.705099	22.277399
553	102	3	0.060000	32.146617	21.457626	23.554734
554	102	8	0.418000	30.246867	22.358317	21.687863
555	103	1	-0.180000	30.094940	28.693248	35.064815
556	103	2	-0.120000	30.754025	29.268126	33.811047