
variable        infile index octanol_ua.data   # The name of the (edited) data file

#>>>>>> Simulation settings <<<<<<<

units		 real		#angstroms = length -
atom_style	 full		#How the atoms are defined in the input data file
boundary        p p p           #periodic box in x, y and z
pair_style	 lj/cut/coul/long 14.0    #'lj/cut/coul/long 12.0' for your ethanol simulation
pair_modify     tail yes            #Tail corrections
pair_modify     mix arithmetic      #Lorentz-Berthelot pair interactions between dissimilar atom

# The settings below are additional settings you must add for your ethanol simulation as already detailed in your example NPT LAMMPS script in the tutorial
# For your ethanol homework, change/edit the pair_style line as advised above and uncomment the extra settings below and you should be good to go for this section.

special_bonds   lj/coul 0.0 0.0 0.5
kspace_style    ewald 0.0001
bond_style      harmonic
angle_style     harmonic
dihedral_style  opls


# >>> Using the variable command in LAMMPS to define inputs/settings for the simulation <<<<<<

variable   simulationTemp  index 323     #Simulation temperature
variable   simulationPress equal 0.987	#Simulation pressure

# Output files frequencies
variable        dumpfreq   index 1000          #Output frequency of dump information to dump
variable        thermofreq index 1000          #Output frequency of property information to log
variable        printfreq  index 1000          #Output frequency of information to be printed
variable        restartfreq index 1000000      #Output frequency of restart files


# Simulation run times (equilibration and production)
variable        NVT_equib  index 1000000       # Equilibration run length (in timesteps)
variable        NVT_prod   index 3000000       # Simulation run length  (in timesteps)


# Defining properties to output
# The first expression after the 'variable' command is a user defined name for the variable, it can be anything
# The expression after the 'equal' keyword are LAMMPS special/reserved terms for those property

variable    step        equal step
variable    density     equal density
variable    temp        equal temp
variable    press       equal press
variable    ke          equal ke
variable    pe          equal pe
variable    etotal      equal etotal
variable    enthalpy    equal enthalpy


# >>>>>>>>>>> Reading data, Neighbor list settings, energy minimization, assigning initial velocities & specifying thermodynamic property output style to log files <<<<<<<<<

read_data	${infile}
read_data	octanol_ua.data
  orthogonal box = (0 0 0) to (40 40 40)
  3 by 4 by 4 MPI processor grid
  reading atoms ...
  2000 atoms
  scanning bonds ...
  1 = max bonds/atom
  scanning angles ...
  1 = max angles/atom
  scanning dihedrals ...
  1 = max dihedrals/atom
  reading bonds ...
  1800 bonds
  reading angles ...
  1600 angles
  reading dihedrals ...
  1400 dihedrals
  2 = max # of 1-2 neighbors
  2 = max # of 1-3 neighbors
  4 = max # of 1-4 neighbors
  6 = max # of special neighbors
  special bonds CPU = 0.0181975 secs
  read_data CPU = 0.0380513 secs
neighbor        1.0 bin
neigh_modify    delay 0 every 1 check yes page 1000000 one 20000
timestep        1.0

minimize        1e-4 1e-6 10000 100000        #Energy minimize before creating velocities
Ewald initialization ...
  using 12-bit tables for long-range coulomb (src/kspace.cpp:332)
  G vector (1/distance) = 0.147428
  estimated absolute RMS force accuracy = 0.041374
  estimated relative force accuracy = 0.000124597
  KSpace vectors: actual max1d max3d = 128 4 364
                  kxmax kymax kzmax  = 4 4 4
Neighbor list info ...
  update every 1 steps, delay 0 steps, check yes
  max neighbors/atom: 20000, page size: 1000000
  master list distance cutoff = 15
  ghost atom cutoff = 15
  binsize = 7.5, bins = 6 6 6
  1 neighbor lists, perpetual/occasional/extra = 1 0 0
  (1) pair lj/cut/coul/long, perpetual
      attributes: half, newton on
      pair build: half/bin/newton
      stencil: half/bin/3d/newton
      bin: standard
Per MPI rank memory allocation (min/avg/max) = 18.73 | 18.85 | 19.24 Mbytes
Step Temp E_pair E_mol TotEng Press 
       0            0    278272.25    45807.952     324080.2    1091500.2 
     519            0   -2759.2838    366.72189   -2392.5619    -653.1094 
Loop time of 2.22184 on 48 procs for 519 steps with 2000 atoms

40.9% CPU use with 48 MPI tasks x 1 OpenMP threads

Minimization stats:
  Stopping criterion = energy tolerance
  Energy initial, next-to-last, final = 
         324080.203868      -2392.3711054     -2392.56188381
  Force two-norm initial, final = 76473.1 25.3948
  Force max component initial, final = 6066.45 5.47673
  Final line search alpha, max atom move = 0.0145911 0.0799117
  Iterations, force evaluations = 519 954

MPI task timing breakdown:
Section |  min time  |  avg time  |  max time  |%varavg| %total
---------------------------------------------------------------
Pair    | 0.056748   | 0.32538    | 0.61285    |  28.1 | 14.64
Bond    | 0.0037052  | 0.011332   | 0.017804   |   3.5 |  0.51
Kspace  | 0.27474    | 0.60003    | 0.85617    |  20.5 | 27.01
Neigh   | 0.038025   | 0.048464   | 0.055981   |   3.2 |  2.18
Comm    | 0.5714     | 0.70631    | 0.8419     |   5.7 | 31.79
Output  | 0          | 0          | 0          |   0.0 |  0.00
Modify  | 0          | 0          | 0          |   0.0 |  0.00
Other   |            | 0.5303     |            |       | 23.87

Nlocal:    41.6667 ave 67 max 13 min
Histogram: 3 5 3 4 6 5 5 8 8 1
Nghost:    2115.67 ave 2186 max 2016 min
Histogram: 13 2 1 0 0 0 1 10 8 13
Neighs:    9780.23 ave 16722 max 1938 min
Histogram: 4 5 4 5 3 5 3 7 9 3

Total # of neighbors = 469451
Ave neighs/atom = 234.726
Ave special neighs/atom = 4.8
Neighbor list builds = 47
Dangerous builds = 0
#velocity	all create ${simulationTemp} 886874 mom yes rot yes dist gaussian

velocity        all create  ${simulationTemp} 317879265 units box
velocity        all create  323 317879265 units box
velocity        all zero linear units box

# The 'velocity' command line above assigns initial velocities to the atoms in our data file, see the LAMMPS 'velocity' command
# The number '886874' is the seed number which helps LAMMPS to consistently assign the same randomized velocities for the same simulation with the same seed number
# Changing that seed number for your simulation of a given system is one easy way to run an 'independent' simulation of the same system as taught in class
# You will need to do this for your homework

thermo_style    custom step vol temp press ke pe etotal enthalpy evdwl ecoul epair ebond eangle edihed eimp emol elong etail lx ly lz xy xz yz density
thermo          ${thermofreq}
thermo          1000

fix npt_density all npt temp ${simulationTemp} ${simulationTemp} 100 iso ${simulationPress} ${simulationPress} 1000
fix npt_density all npt temp 323 ${simulationTemp} 100 iso ${simulationPress} ${simulationPress} 1000
fix npt_density all npt temp 323 323 100 iso ${simulationPress} ${simulationPress} 1000
fix npt_density all npt temp 323 323 100 iso 0.987 ${simulationPress} 1000
fix npt_density all npt temp 323 323 100 iso 0.987 0.987 1000

run 50000
Ewald initialization ...
  using 12-bit tables for long-range coulomb (src/kspace.cpp:332)
  G vector (1/distance) = 0.147428
  estimated absolute RMS force accuracy = 0.041374
  estimated relative force accuracy = 0.000124597
  KSpace vectors: actual max1d max3d = 128 4 364
                  kxmax kymax kzmax  = 4 4 4
Per MPI rank memory allocation (min/avg/max) = 17.6 | 17.76 | 18.11 Mbytes
Step Volume Temp Press KinEng PotEng TotEng Enthalpy E_vdwl E_coul E_pair E_bond E_angle E_dihed E_impro E_mol E_long E_tail Lx Ly Lz Xy Xz Yz Density 
     519        64000          323    721.57339    1924.6405   -2392.5619   -467.92139    205.57671   -1771.8765    3145.3273   -2759.2838    23.571376    41.518217     301.6323            0    366.72189   -4132.7346   -52.673181           40           40           40            0            0            0   0.67579459 
    1000    67258.732     285.9673   -39.744828     1703.976   -822.42725    881.54876    842.56307    -1558.933    3295.5158   -2394.6838    518.02913    432.18082    622.04662            0    1572.2566   -4131.2666   -50.121129    40.667695    40.667695    40.667695            0            0            0   0.64305188 
    2000    67401.736     323.3884       -561.2    1926.9548   -605.96923    1320.9856    769.33433   -1439.9773    3191.9463   -2380.6596    613.12253    478.60588    682.96196            0    1774.6904   -4132.6286   -50.014789    40.696497    40.696497    40.696497            0            0            0   0.64168754 
    3000    65714.219    329.05983    389.98819    1960.7489   -607.34002    1353.4088    1727.1636   -1451.7639    3116.6598   -2463.9854    602.83547    545.17082    708.63905            0    1856.6453   -4128.8813    -51.29915    40.353987    40.353987    40.353987            0            0            0   0.65816583 
    4000    62540.331    322.26288    922.64362    1920.2483   -870.99826      1049.25    1890.7809   -1467.7828    3027.3231   -2571.1698    561.92827    499.87606    638.36722            0    1700.1715   -4130.7101   -53.902554    39.693561    39.693561    39.693561            0            0            0    0.6915674 
    5000    59889.406    324.97273    39.206973    1936.3953   -869.96556    1066.4297    1100.6741   -1535.9399    3030.5633   -2636.1126     563.5808    515.69496    686.87129            0    1766.1471    -4130.736   -56.288479    39.124608    39.124608    39.124608            0            0            0   0.72217871 
    6000    59300.216    316.65704   -1121.7966    1886.8451   -949.32518    937.51993   -32.646604   -1551.2677    2978.2374   -2704.3472    570.90763    527.05491    657.05948            0     1755.022   -4131.3169   -56.847745    38.995883    38.995883    38.995883            0            0            0   0.72935407 
    7000    56956.831    320.21978    22.912928    1908.0742   -1009.8539    898.22027    917.25305   -1569.5889    2919.7565   -2780.0334    552.33918    548.16309     669.6772            0    1770.1795   -4130.2009   -59.186642    38.475293    38.475293    38.475293            0            0            0   0.75936201 
    8000    57589.992    324.52398   -161.47916    1933.7214   -1005.5062    928.21518    792.59029   -1564.9687    2945.4057   -2749.9846    543.71267    511.28598    689.47977            0    1744.4784   -4130.4217   -58.535927    38.617339    38.617339    38.617339            0            0            0   0.75101337 
    9000    57020.837    317.14402     -880.077    1889.7468   -1023.4373    866.30951     134.4459   -1599.9617    2936.0186     -2796.85    530.67415    543.23353    699.50505            0    1773.4127    -4132.907   -59.120205      38.4897      38.4897      38.4897            0            0            0   0.75850963 
   10000    55662.786    327.07398   -1227.8228    1948.9159   -1078.4203    870.49561   -126.23203   -1653.3433      2893.07   -2892.7192    543.49903    522.67444    748.12544            0    1814.2989   -4132.4459    -60.56261    38.181675    38.181675    38.181675            0            0            0   0.77701562 
   11000    55409.951    319.23093   -495.06069    1902.1819   -1196.7245    705.45747    305.40027   -1629.6141     2801.495   -2960.0105    553.84257    508.53343    700.90999            0     1763.286   -4131.8913   -60.838956    38.123777    38.123777    38.123777            0            0            0   0.78056113 
   12000    56044.308    322.74514   -887.18491    1923.1219   -1140.5481     782.5737    57.434225   -1618.7854    2811.4863   -2939.4458    553.96917     553.8956    691.03284            0    1798.8976   -4132.1467   -60.150329    38.268711    38.268711    38.268711            0            0            0   0.77172607 
   13000    56105.585    336.54111    331.33767    2005.3271   -1131.9969    873.33017    1144.4447   -1577.1096    2780.4926   -2929.3025     580.9504     511.0729    705.28226            0    1797.3056   -4132.6854   -60.084634    38.282654    38.282654    38.282654            0            0            0   0.77088321 
   14000    55254.389    323.19131    8.3126021    1925.7804    -1157.285    768.49537     775.1939   -1634.0486    2806.0817    -2961.376     548.9614    537.88814    717.24142            0     1804.091    -4133.409   -61.010241    38.088066    38.088066    38.088066            0            0            0   0.78275871 
   15000    55809.713    334.65421   -192.88685    1994.0837   -1206.7361    787.34757    630.35167   -1607.7969    2766.9192   -2974.1818    548.21677    511.58991      707.639            0    1767.4457   -4133.3041    -60.40317     38.21524     38.21524     38.21524            0            0            0   0.77497001 
   16000    55280.801    321.08473   -225.01685    1913.2281   -1232.2853    680.94278    499.53109   -1642.8915    2766.5642   -3005.8403    544.50652    556.31773     672.7307            0     1773.555    -4129.513   -60.981091    38.094134    38.094134    38.094134            0            0            0   0.78238472 
   17000    54213.597    316.57427   -16.262705    1886.3519   -1225.8882    660.46368    647.60558   -1686.5147    2801.1158   -3017.6892    559.85861    527.17787    704.76456            0     1791.801   -4132.2903   -62.181515    37.847402    37.847402    37.847402            0            0            0    0.7977861 
   18000     55689.71    315.48113   -525.07038    1879.8383   -1165.5212    714.31711    287.86687   -1618.0223    2754.2492    -2994.884    568.15181    566.27801    694.93302            0    1829.3628   -4131.1109    -60.53333     38.18783     38.18783     38.18783            0            0            0   0.77663996 
   19000    55730.394     321.3947   -205.79657    1915.0751   -1249.3811    665.69397    498.42857   -1640.1333    2752.5105   -3018.9445    558.17026    543.16918    668.22397            0    1769.5634   -4131.3217    -60.48914    38.197127    38.197127    38.197127            0            0            0     0.776073 
   20000    54991.074    317.75023   -433.58946     1893.359    -1257.477      635.882    288.14827   -1640.9003    2740.2568   -3032.7665    570.77145    505.71088    698.80714            0    1775.2895    -4132.123   -61.302377    38.027467    38.027467    38.027467            0            0            0    0.7865068 
   21000    54531.446    322.34136   -538.16271    1920.7159    -1255.401    665.31492    237.32208   -1680.1313    2777.0428   -3035.7081    561.59818    513.92983     704.7791            0    1780.3071   -4132.6196   -61.819075    37.921223    37.921223    37.921223            0            0            0   0.79313602 
   22000    54737.468    323.79859    2767.7361     1929.399   -1217.8728     711.5262    2920.9818   -1646.8516    2760.8252    -3018.846    566.63724    525.34951    708.98646            0    1800.9732   -4132.8196   -61.586399    37.968919    37.968919    37.968919            0            0            0   0.79015079 
   23000    54791.868    323.92688    1119.7302    1930.1634   -1289.3529     640.8105    1535.5681   -1682.7075    2766.5475   -3048.3733    560.35971    510.05942    688.60122            0    1759.0203   -4132.2133   -61.525253    37.981493    37.981493    37.981493            0            0            0    0.7893663 
   24000    54656.515     323.0366     1385.827    1924.8586   -1321.6178    603.24079    1707.8962   -1667.5585    2738.4706   -3061.9744    546.07379    535.09481    659.18809            0    1740.3567   -4132.8866   -61.677617    37.950192    37.950192    37.950192            0            0            0   0.79132111 
   25000    53958.265    320.41895    887.35218    1909.2609   -1323.4364    585.82452     1284.105   -1668.5891    2703.6941   -3096.5444    553.07938    545.18937    674.83923            0     1773.108   -4131.6495    -62.47576    37.787891    37.787891    37.787891            0            0            0   0.80156125 
   26000    54113.333    320.47146     1482.123    1909.5738   -1266.2964    643.27738    1812.9503   -1648.5225     2681.074    -3099.748    577.92896    538.34344    717.17915            0    1833.4515   -4132.2995   -62.296727    37.824056    37.824056    37.824056            0            0            0   0.79926427 
   27000    54076.935    323.95389    2195.4026    1930.3244   -1269.6366     660.6878    2392.1066   -1662.4444    2730.7388   -3064.3883    551.74055    515.20853    727.80263            0    1794.7517   -4132.6826   -62.338658    37.815573    37.815573    37.815573            0            0            0   0.79980224 
   28000     55343.78    318.84449   -278.14417    1899.8793   -1275.9722    623.90708    399.40795   -1554.2825     2611.955   -3073.8951    580.50935    523.23247    694.18106            0    1797.9229   -4131.5677   -60.911697    38.108595    38.108595    38.108595            0            0            0    0.7814944 
   29000    55977.436    329.96095    242.14646    1966.1183   -1224.3428    741.77552    939.45747   -1590.2661    2688.1675   -3034.5999    592.30532    544.20442    673.74743            0    1810.2572   -4132.5013   -60.222186    38.253484    38.253484    38.253484            0            0            0     0.772648 
   30000    55312.082    317.23996   -473.02296    1890.3185   -1267.4957    622.82275    241.24933   -1615.9511    2679.8068   -3067.6962    571.52985    520.96501    707.70556            0    1800.2004   -4131.5518   -60.946604    38.101318    38.101318    38.101318            0            0            0   0.78194225 
   31000     55249.61    319.11733   -743.33605    1901.5051   -1251.0381    650.46695    51.517314    -1617.028    2613.1181   -3136.7008    608.48726    587.26796    689.90749            0    1885.6627   -4132.7909   -61.015518    38.086968    38.086968    38.086968            0            0            0   0.78282641 
   32000      54601.2    325.74713    192.76909    1941.0096   -1388.5671    552.44254    705.94504    -1643.259    2620.5393   -3154.5875    563.42321    530.02763     672.5696            0    1766.0204   -4131.8678   -61.740101    37.937385    37.937385    37.937385            0            0            0   0.79212278 
   33000    55120.919    313.26301   -883.96076    1866.6213    -1329.999    536.62233   -173.97787   -1626.2367     2665.147   -3094.3065    552.34586    552.57446    659.38721            0    1764.3075   -4133.2168   -61.157971    38.057374    38.057374    38.057374            0            0            0   0.78465408 
   34000    55162.643    320.53318       518.81    1909.9416    -1272.711    637.23057    1054.6083   -1604.8998    2675.1821   -3062.9722    617.95974    527.46327    644.83819            0    1790.2612   -4133.2545   -61.111713    38.066974    38.066974    38.066974            0            0            0   0.78406059 
   35000    54463.567    323.73547   -226.78987    1929.0229   -1358.0777    570.94519    390.80708   -1623.4781    2596.5921   -3158.4566    583.69878    544.74926    671.93082            0    1800.3789   -4131.5706   -61.896122    37.905482    37.905482    37.905482            0            0            0   0.79412452 
   36000    54696.378    320.15187   -659.45001    1907.6695   -1238.3318    669.33771    143.30065   -1618.2689    2681.0844   -3068.3388    602.25675    537.06486    690.68538            0     1830.007   -4131.1544   -61.632665    37.959416    37.959416    37.959416            0            0            0   0.79074438 
   37000    55683.558    337.19281   -529.18902    2009.2103   -1331.3338    677.87654    248.12871   -1613.1115    2670.5233    -3073.447    570.26979    525.76688     646.0766            0    1742.1133   -4130.8588   -60.540018    38.186424    38.186424    38.186424            0            0            0   0.77672577 
   38000    55391.337     325.9683   -511.60318    1942.3275    -1318.284    624.04352    210.75725   -1647.8164     2712.526   -3067.2121    595.70997    507.95212    645.26594            0     1748.928   -4131.9217   -60.859401    38.119508    38.119508    38.119508            0            0            0   0.78082344 
   39000    54464.861    328.18854    1123.1189    1955.5571   -1398.3213    557.23576     1449.345   -1610.1733     2623.296   -3119.1623    557.52845     503.8922     659.4203            0     1720.841    -4132.285   -61.894651    37.905783    37.905783    37.905783            0            0            0   0.79410565 
   40000    55544.371     328.7145    5.0846597    1958.6912   -1352.5715    606.11966    610.23853   -1616.4202    2675.8606   -3072.4793     552.8296    536.41598    630.66226            0    1719.9078   -4131.9197   -60.691723    38.154581    38.154581    38.154581            0            0            0   0.77867213 
   41000     55518.54    310.64584    855.15943    1851.0265   -1370.6909    480.33559    1172.7419   -1609.3309    2634.4652   -3107.2968    595.36849    516.51672    624.72061            0    1736.6058   -4132.4311   -60.719961    38.148665    38.148665    38.148665            0            0            0   0.77903443 
   42000    54485.692    314.53879    915.96957    1874.2232   -1271.1969    603.02627    1330.8721   -1661.3729    2646.2394   -3146.8528    592.72405    588.19016    694.74165            0    1875.6559   -4131.7193   -61.870988    37.910614    37.910614    37.910614            0            0            0   0.79380205 
   43000    54571.147    323.73785   -271.17203    1929.0371   -1399.9498    529.08728    313.27117   -1653.8778    2600.9653   -3185.6251    590.15737    545.58915    649.92878            0    1785.6753   -4132.7126   -61.774102    37.930424    37.930424    37.930424            0            0            0   0.79255901 
   44000    54407.451     320.1933   -601.74919    1907.9164   -1395.3656    512.55082    35.076755   -1638.7705    2595.3787   -3174.9821    602.08225    551.11269    626.42155            0    1779.6165   -4131.5903   -61.959961    37.892459    37.892459    37.892459            0            0            0   0.79494358 
   45000    54309.436    330.54079   -371.14056    1969.5733   -1367.9477    601.62564    307.66472   -1618.1102    2581.0772   -3167.4788    599.59963    561.71188    638.21957            0    1799.5311   -4130.4458   -62.071784    37.869691    37.869691    37.869691            0            0            0   0.79637826 
   46000    55086.049    322.78608   -752.72199    1923.3658   -1293.0015    630.36427    25.647356   -1630.0049    2650.0837   -3112.6515    606.37156    577.85989    635.41855            0      1819.65   -4132.7303   -61.196685    38.049347    38.049347    38.049347            0            0            0   0.78515078 
   47000    53887.105    319.27836    276.69305    1902.4646    -1412.099    490.36551     707.8153   -1643.3341    2590.4842   -3183.6736    582.80185    544.96412    643.80864            0    1771.5746   -4130.8238   -62.558261    37.771273    37.771273    37.771273            0            0            0   0.80261973 
   48000    53773.577    328.25015    1184.4902    1955.9243   -1461.7193    494.20493    1423.1206   -1658.4879    2611.8054    -3176.683    550.49496    532.59891    631.86976            0    1714.9636   -4130.0004   -62.690335    37.744729    37.744729    37.744729            0            0            0   0.80431424 
   49000    54801.696    323.74471    838.90711     1929.078   -1332.4555    596.62243    1267.0992   -1656.2027    2628.4773   -3158.0351    611.24064    548.47502    665.86385            0    1825.5795   -4130.3096    -61.51422    37.983764    37.983764    37.983764            0            0            0   0.78922474 
   50000    54474.022    327.86953    1342.2566    1953.6563    -1381.313    572.34326     1638.696    -1659.271     2605.299   -3184.9384    593.50287    534.42057    675.70194            0    1803.6254   -4130.9663   -61.884242    37.907908    37.907908    37.907908            0            0            0    0.7939721 
   50519    54820.768     333.1197   -1253.8144    1984.9401   -1305.9957    678.94437   -323.48611   -1640.2547    2635.6228   -3135.5147    622.35426     521.8598    685.30491            0     1829.519   -4130.8828    -61.49282     37.98817     37.98817     37.98817            0            0            0   0.78895017 
Loop time of 100.1 on 48 procs for 50000 steps with 2000 atoms

Performance: 43.157 ns/day, 0.556 hours/ns, 499.499 timesteps/s
41.8% CPU use with 48 MPI tasks x 1 OpenMP threads

MPI task timing breakdown:
Section |  min time  |  avg time  |  max time  |%varavg| %total
---------------------------------------------------------------
Pair    | 10.992     | 13.622     | 16.926     |  36.8 | 13.61
Bond    | 0.5237     | 0.63986    | 0.73752    |   6.0 |  0.64
Kspace  | 14.041     | 18.658     | 22.757     |  44.7 | 18.64
Neigh   | 3.0417     | 3.6131     | 4.168      |  18.3 |  3.61
Comm    | 30.943     | 37.403     | 45.006     |  49.5 | 37.37
Output  | 0.055564   | 0.056525   | 0.064656   |   0.5 |  0.06
Modify  | 17.399     | 21.003     | 23.884     |  36.6 | 20.98
Other   |            | 5.104      |            |       |  5.10

Nlocal:    41.6667 ave 52 max 27 min
Histogram: 1 2 9 1 5 6 4 4 7 9
Nghost:    2389.56 ave 2435 max 2348 min
Histogram: 2 2 4 11 8 7 7 4 2 1
Neighs:    10730.3 ave 13854 max 6584 min
Histogram: 1 1 10 5 3 6 4 5 5 8

Total # of neighbors = 515054
Ave neighs/atom = 257.527
Ave special neighs/atom = 4.8
Neighbor list builds = 4690
Dangerous builds = 0

unfix npt_density

fix reshape_box all deform 1 x final 0.0 37.4495 y final 0.0 37.4495 z final 0.0 37.4495 units box

run 100000
Ewald initialization ...
  using 12-bit tables for long-range coulomb (src/kspace.cpp:332)
  G vector (1/distance) = 0.148762
  estimated absolute RMS force accuracy = 0.0375403
  estimated relative force accuracy = 0.000113051
  KSpace vectors: actual max1d max3d = 128 4 364
                  kxmax kymax kzmax  = 4 4 4
Per MPI rank memory allocation (min/avg/max) = 17.62 | 17.8 | 18.12 Mbytes
Step Volume Temp Press KinEng PotEng TotEng Enthalpy E_vdwl E_coul E_pair E_bond E_angle E_dihed E_impro E_mol E_long E_tail Lx Ly Lz Xy Xz Yz Density 
   50519    54820.768     333.1197   -1253.7579    1984.9401   -1306.0229    678.91723   -323.46803   -1640.2547    2672.8036   -3135.5419    622.35426     521.8598    685.30491            0     1829.519   -4168.0908    -61.49282     37.98817     37.98817     37.98817            0            0            0   0.78895017 
   51000    54809.551     333.1197   -1114.5571    1984.9401   -1306.5342    678.40592   -212.50535   -1639.9408    2672.6551   -3135.3776    621.67865     521.8598    685.30491            0    1828.8434   -4168.0919   -61.505404    37.985579    37.985579    37.985579            0            0            0   0.78911162 
   52000    54786.237     333.1197   -823.82759    1984.9401   -1307.3938    677.54636    19.307234   -1639.2837    2672.4783   -3134.8997    620.34122     521.8598    685.30491            0    1827.5059   -4168.0943   -61.531577    37.980192    37.980192    37.980192            0            0            0   0.78944743 
   53000     54762.93     333.1197   -532.94042    1984.9401   -1308.1637    676.77637    251.13756   -1638.6227    2672.2924    -3134.427    619.09853     521.8598    685.30491            0    1826.2632   -4168.0967   -61.557766    37.974805    37.974805    37.974805            0            0            0   0.78978342 
   54000    54739.629     333.1197   -242.26869    1984.9401   -1308.9296    676.01053    482.60227   -1637.9585    2672.0127   -3134.0449    617.95058     521.8598    685.30491            0    1825.1153   -4168.0992   -61.583969    37.969419    37.969419    37.969419            0            0            0   0.79011961 
   55000    54716.334     333.1197    49.063211    1984.9401   -1309.4909    675.44919    714.60073   -1637.2889    2671.8375    -3133.553    616.89736     521.8598    685.30491            0    1824.0621   -4168.1016   -61.610187    37.964032    37.964032    37.964032            0            0            0   0.79045599 
   56000    54693.047     333.1197     340.4067    1984.9401   -1309.9949    674.94518    946.46785   -1636.6131    2671.6186   -3133.0985    615.93887     521.8598    685.30491            0    1823.1036    -4168.104    -61.63642    37.958645    37.958645    37.958645            0            0            0   0.79079255 
   57000    54669.765     333.1197    631.63624    1984.9401   -1310.4721    674.46806    1178.0732   -1635.9349    2671.3295   -3132.7119    615.07511     521.8598    685.30491            0    1822.2398   -4168.1064   -61.662668    37.953259    37.953259    37.953259            0            0            0   0.79112931 
   58000    54646.491     333.1197    923.46576    1984.9401   -1310.7592    674.18092     1410.149   -1635.2532     2671.132     -3132.23    614.30609     521.8598    685.30491            0    1821.4708   -4168.1088    -61.68893    37.947872    37.947872    37.947872            0            0            0   0.79146626 
   59000    54623.223     333.1197    1215.6017    1984.9401    -1310.922    674.01814    1642.3953   -1634.5653    2670.9581   -3131.7185     613.6318     521.8598    685.30491            0    1820.7965   -4168.1113   -61.715208    37.942485    37.942485    37.942485            0            0            0   0.79180341 
   60000    54599.962     333.1197    1508.4292    1984.9401   -1310.8765    674.06363    1875.2024   -1633.8786    2670.8988   -3131.0935    613.05225     521.8598    685.30491            0     1820.217   -4168.1137   -61.741501    37.937099    37.937099    37.937099            0            0            0   0.79214074 
   61000    54576.707     333.1197    1800.8905    1984.9401     -1310.86     674.0801    2107.4904   -1633.1854    2670.7094   -3130.5922    612.56743     521.8598    685.30491            0    1819.7321   -4168.1161   -61.767808    37.931712    37.931712    37.931712            0            0            0   0.79247826 
   62000    54553.459     333.1197    2093.8737    1984.9401   -1310.6705    674.26964    2340.1686    -1632.485    2670.5909   -3130.0125    612.17734     521.8598    685.30491            0    1819.3421   -4168.1185   -61.794131    37.926325    37.926325    37.926325            0            0            0   0.79281598 
   63000    54530.218     333.1197    2386.5102    1984.9401   -1310.5064    674.43377    2572.3473   -1631.7823    2670.3502   -3129.5531    611.88199     521.8598    685.30491            0    1819.0467   -4168.1209   -61.820468    37.920938    37.920938    37.920938            0            0            0   0.79315389 
   64000    54506.983     333.1197    2679.7407    1984.9401   -1310.1528    674.78731    2804.9894   -1631.0731    2670.1975   -3128.9989    611.68137     521.8598    685.30491            0    1818.8461   -4168.1233   -61.846821    37.915552    37.915552    37.915552            0            0            0   0.79349199 
   65000    54483.754     333.1197    2973.0571    1984.9401   -1309.7275    675.21264    3037.5731   -1630.3621    2670.0201   -3128.4677    611.57548     521.8598    685.30491            0    1818.7402   -4168.1258   -61.873188    37.910165    37.910165    37.910165            0            0            0   0.79383028 
   66000    54460.533     333.1197    3266.7499    1984.9401   -1309.1633    675.77686    3270.3963    -1629.646    2669.8819   -3127.8923    611.56433     521.8598    685.30491            0     1818.729   -4168.1282    -61.89957    37.904778    37.904778    37.904778            0            0            0   0.79416877 
   67000    54437.318     333.1197    3560.8182    1984.9401   -1308.4616    676.47848    3503.4564   -1628.9285    2669.7848   -3127.2743    611.64791     521.8598    685.30491            0    1818.8126   -4168.1306   -61.925968    37.899392    37.899392    37.899392            0            0            0   0.79450744 
   68000    54414.109     333.1197    3854.5235    1984.9401   -1307.7869    677.15326    3736.0028    -1628.202    2669.5572   -3126.7778    611.82622     521.8598    685.30491            0    1818.9909    -4168.133    -61.95238    37.894005    37.894005    37.894005            0            0            0   0.79484631 
   69000    54390.907     333.1197    4148.8054    1984.9401   -1306.9275     678.0126    3968.9927   -1627.4698    2669.4137   -3126.1915    612.09927     521.8598    685.30491            0     1819.264   -4168.1354   -61.978808    37.888618    37.888618    37.888618            0            0            0   0.79518538 
   70000    54367.712     333.1197    4443.1029    1984.9401   -1306.0144    678.92568      4201.85   -1626.7409    2669.2325   -3125.6462    612.46705     521.8598    685.30491            0    1819.6318   -4168.1378    -62.00525    37.883232    37.883232    37.883232            0            0            0   0.79552463 
   71000    54344.523     333.1197    4736.9297    1984.9401    -1305.154    679.78616     4434.083   -1626.0072    2668.8993   -3125.2482    612.92957     521.8598    685.30491            0    1820.0943   -4168.1403   -62.031708    37.877845    37.877845    37.877845            0            0            0   0.79586408 
   72000    54321.341     333.1197    5031.7582    1984.9401   -1304.0138    680.92631     4667.191   -1625.2691    2668.7465   -3124.6653    613.48682     521.8598    685.30491            0    1820.6515   -4168.1427    -62.05818    37.872458    37.872458    37.872458            0            0            0   0.79620372 
   73000    54298.166     333.1197    5326.6195    1984.9401   -1302.8121    682.12797    4900.1876   -1624.5247    2668.5541   -3124.1157     614.1388     521.8598    685.30491            0    1821.3035   -4168.1451   -62.084668    37.867071    37.867071    37.867071            0            0            0   0.79654356 
   74000    54274.997     333.1197    5621.3829    1984.9401   -1301.5778    683.36232    5132.9407   -1623.7727    2668.2922    -3123.628    614.88552     521.8598    685.30491            0    1822.0502   -4168.1475    -62.11117    37.861685    37.861685    37.861685            0            0            0   0.79688359 
   75000    54251.834     333.1197    5916.7834    1984.9401   -1300.1467    684.79345     5366.196   -1623.0176    2668.1292   -3123.0384    615.72697     521.8598    685.30491            0    1822.8917   -4168.1499   -62.137688    37.856298    37.856298    37.856298            0            0            0   0.79722381 
   76000    54228.679     333.1197    6212.3164    1984.9401   -1298.6334    686.30671    5599.4392   -1622.2602    2667.9513   -3122.4613    616.66315     521.8598    685.30491            0    1823.8279   -4168.1523   -62.164221    37.850911    37.850911    37.850911            0            0            0   0.79756422 
   77000     54205.53     333.1197    6508.5791    1984.9401   -1296.9016     688.0385    5833.2789   -1621.4969    2667.8913   -3121.7604    617.69407     521.8598    685.30491            0    1824.8588   -4168.1548   -62.190769    37.845525    37.845525    37.845525            0            0            0   0.79790483 
   78000    54182.387     333.1197    6804.9133    1984.9401   -1295.0997    689.84039    6067.0457   -1620.7278    2667.8008   -3121.0842    618.81972     521.8598    685.30491            0    1825.9844   -4168.1572   -62.217332    37.840138    37.840138    37.840138            0            0            0   0.79824564 
   79000    54159.251     333.1197    7100.5015    1984.9401    -1293.414    691.52614    6299.9078    -1619.957    2667.4978   -3120.6188     620.0401     521.8598    685.30491            0    1827.2048   -4168.1596   -62.243911    37.834751    37.834751    37.834751            0            0            0   0.79858663 
   80000    54136.122     333.1197    7396.5155    1984.9401   -1291.5788    693.36134    6533.0568   -1619.1811    2667.2443   -3120.0987    621.35522     521.8598    685.30491            0    1828.5199    -4168.162   -62.270504    37.829365    37.829365    37.829365            0            0            0   0.79892783 
   81000    54112.999     333.1197    7692.7336    1984.9401   -1289.6456    695.29448    6766.2659   -1618.4037    2666.9927   -3119.5754    622.76507     521.8598    685.30491            0    1829.9298   -4168.1644   -62.297112    37.823978    37.823978    37.823978            0            0            0   0.79926921 
   82000    54089.883     333.1197    7989.1439    1984.9401   -1287.6143    697.32581    6999.5257    -1617.618    2666.7362   -3119.0487    624.26966     521.8598    685.30491            0    1831.4344   -4168.1668   -62.323736    37.818591    37.818591    37.818591            0            0            0   0.79961079 
   83000    54066.773     333.1197     8285.646    1984.9401   -1285.5103    699.42985    7232.7315   -1616.8306    2666.4559    -3118.544    625.86898     521.8598    685.30491            0    1833.0337   -4168.1693   -62.350375    37.813204    37.813204    37.813204            0            0            0   0.79995257 
   84000     54043.67     333.1197    8583.1247    1984.9401    -1283.133    701.80713    7466.7813   -1616.0377    2666.3487   -3117.8607    627.56303     521.8598    685.30491            0    1834.7277   -4168.1717   -62.377029    37.807818    37.807818    37.807818            0            0            0   0.80029454 
   85000    54020.574     333.1197    8880.6381    1984.9401    -1280.694    704.24609    7700.7206   -1615.2383    2666.2018   -3117.2106    629.35182     521.8598    685.30491            0    1836.5165   -4168.1741   -62.403698    37.802431    37.802431    37.802431            0            0            0    0.8006367 
   86000    53997.484     333.1197    9177.7343    1984.9401   -1278.2961    706.64403    7934.0906   -1614.4355    2665.9159   -3116.6961    631.23534     521.8598    685.30491            0    1838.4001   -4168.1765   -62.430383    37.797044    37.797044    37.797044            0            0            0   0.80097906 
   87000      53974.4     333.1197    9475.4449    1984.9401   -1275.7066    709.23351    8167.9367   -1613.6272    2665.7212   -3116.0849    633.21359     521.8598    685.30491            0    1840.3783   -4168.1789   -62.457082    37.791658    37.791658    37.791658            0            0            0   0.80132162 
   88000    53951.324     333.1197    9772.9815    1984.9401   -1273.1057    711.83437    8401.4578   -1612.8208    2665.4451    -3115.557    635.28658     521.8598    685.30491            0    1842.4513   -4168.1813   -62.483797    37.786271    37.786271    37.786271            0            0            0   0.80166437 
   89000    53928.254     333.1197    10071.315    1984.9401     -1270.27    714.67014    8635.6415   -1612.0031    2665.2979    -3114.889     637.4543     521.8598    685.30491            0     1844.619   -4168.1838   -62.510527    37.780884    37.780884    37.780884            0            0            0   0.80200732 
   90000     53905.19     333.1197    10369.893    1984.9401   -1267.3277    717.61245    8869.9235   -1611.1829    2665.1599   -3114.2091    639.71675     521.8598    685.30491            0    1846.8815   -4168.1862   -62.537273    37.775498    37.775498    37.775498            0            0            0   0.80235046 
   91000    53882.133     333.1197    10668.343    1984.9401   -1264.3607    720.57943    9103.9302   -1610.3577    2664.9469   -3113.5993    642.07394     521.8598    685.30491            0    1849.2387   -4168.1886   -62.564033    37.770111    37.770111    37.770111            0            0            0    0.8026938 
   92000    53859.083     333.1197    10966.927    1984.9401   -1261.3097    723.63041    9337.9267   -1609.5262    2664.7169   -3113.0003    644.52586     521.8598    685.30491            0    1851.6906    -4168.191   -62.590809    37.764724    37.764724    37.764724            0            0            0   0.80303733 
   93000    53836.039     333.1197    11266.127    1984.9401    -1258.068     726.8721    9572.3975   -1608.6907    2664.5788   -3112.3052    647.07252     521.8598    685.30491            0    1854.2372   -4168.1934   -62.617601    37.759338    37.759338    37.759338            0            0            0   0.80338106 
   94000    53813.002     333.1197    11565.302    1984.9401   -1254.7796    730.16048    9806.6952   -1607.8518    2664.3894   -3111.6583    649.71391     521.8598    685.30491            0    1856.8786   -4168.1958   -62.644407    37.753951    37.753951    37.753951            0            0            0   0.80372499 
   95000    53789.971     333.1197    11864.329    1984.9401   -1251.4703    733.46982    10040.699   -1607.0058    2664.1191    -3111.085    652.45003     521.8598    685.30491            0    1859.6147   -4168.1982   -62.671229    37.748564    37.748564    37.748564            0            0            0   0.80406911 
   96000    53766.947     333.1197     12163.73    1984.9401   -1248.0251    736.91504     10274.93   -1606.1568    2663.8868   -3110.4707    655.28088     521.8598    685.30491            0    1862.4456   -4168.2007   -62.698066    37.743177    37.743177    37.743177            0            0            0   0.80441343 
   97000    53743.929     333.1197    12463.549    1984.9401   -1244.4334    740.50677    10509.437    -1605.303    2663.7015   -3109.8045    658.20647     521.8598    685.30491            0    1865.3712   -4168.2031   -62.724918    37.737791    37.737791    37.737791            0            0            0   0.80475794 
   98000    53720.918     333.1197    12763.217    1984.9401   -1240.8216    744.11857    10743.646   -1604.4429    2663.4353   -3109.2131     661.2268     521.8598    685.30491            0    1868.3915   -4168.2055   -62.751786    37.732404    37.732404    37.732404            0            0            0   0.80510266 
   99000    53697.914     333.1197    13062.646    1984.9401   -1237.2101    747.73004    10977.467   -1603.5775    2663.0688   -3108.7167    664.34185     521.8598    685.30491            0    1871.5066   -4168.2079   -62.778669    37.727017    37.727017    37.727017            0            0            0   0.80544757 
  100000    53674.916     333.1197    13362.454    1984.9401   -1233.4611    751.47897    11211.523   -1602.7083    2662.7411   -3108.1775    667.55165     521.8598    685.30491            0    1874.7164   -4168.2103   -62.805568    37.721631    37.721631    37.721631            0            0            0   0.80579267 
  101000    53651.925     333.1197    13662.999    1984.9401   -1229.4976     755.4425    11446.169   -1601.8403    2662.5346   -3107.5185    670.85617     521.8598    685.30491            0    1878.0209   -4168.2127   -62.832482    37.716244    37.716244    37.716244            0            0            0   0.80613798 
  102000     53628.94     333.1197    13963.508    1984.9401   -1225.4873    759.45281    11680.635   -1600.9628    2662.2705   -3106.9074    674.25543     521.8598    685.30491            0    1881.4201   -4168.2152   -62.859411    37.710857    37.710857    37.710857            0            0            0   0.80648348 
  103000    53605.962     333.1197    14264.289    1984.9401   -1221.3631    763.57705    11915.226   -1600.0798    2662.0202   -3106.2772    677.74942     521.8598    685.30491            0    1884.9141   -4168.2176   -62.886355    37.705471    37.705471    37.705471            0            0            0   0.80682917 
  104000     53582.99     333.1197    14565.084    1984.9401   -1217.1818     767.7583    12149.686   -1599.1903    2661.7257   -3105.6847    681.33814     521.8598    685.30491            0    1888.5029     -4168.22   -62.913315    37.700084    37.700084    37.700084            0            0            0   0.80717507 
  105000    53560.025     333.1197    14866.536    1984.9401   -1212.8022     772.1379    12384.657   -1598.2971     2661.531   -3104.9885     685.0216     521.8598    685.30491            0    1892.1863   -4168.2224   -62.940291    37.694697    37.694697    37.694697            0            0            0   0.80752116 
  106000    53537.067     333.1197        15168    1984.9401   -1208.3677    776.57246    12619.492   -1597.4009    2661.2936   -3104.3322    688.79979     521.8598    685.30491            0    1895.9645   -4168.2248   -62.967282     37.68931     37.68931     37.68931            0            0            0   0.80786745 
  107000    53514.115     333.1197     15470.27    1984.9401   -1203.7011    781.23905    12854.988   -1596.5004    2661.1891   -3103.5385    692.67272     521.8598    685.30491            0    1899.8374   -4168.2272   -62.994288    37.683924    37.683924    37.683924            0            0            0   0.80821394 
  108000     53491.17     333.1197    15772.184    1984.9401     -1199.06    785.88009    13089.979   -1595.5925    2660.9571   -3102.8651    696.64038     521.8598    685.30491            0    1903.8051   -4168.2297    -63.02131    37.678537    37.678537    37.678537            0            0            0   0.80856063 
  109000    53468.231     333.1197     16074.66    1984.9401   -1194.2433    790.69684    13325.384   -1594.6838    2660.8051   -3102.1108    700.70277     521.8598    685.30491            0    1907.8675   -4168.2321   -63.048347     37.67315     37.67315     37.67315            0            0            0   0.80890752 
  110000    53445.299     333.1197     16377.29    1984.9401   -1189.3386    795.60151    13560.796   -1593.7685    2660.6397   -3101.3632     704.8599     521.8598    685.30491            0    1912.0246   -4168.2345     -63.0754    37.667764    37.667764    37.667764            0            0            0    0.8092546 
  111000    53422.373     333.1197     16679.38    1984.9401   -1184.4999    800.44022     13795.52   -1592.8454    2660.3059   -3100.7764    709.11176     521.8598    685.30491            0    1916.2765   -4168.2369   -63.102468    37.662377    37.662377    37.662377            0            0            0   0.80960189 
  112000    53399.454     333.1197    16982.524    1984.9401   -1179.3773    805.56278    14031.149   -1591.9242    2660.1631   -3100.0004    713.45835     521.8598    685.30491            0    1920.6231   -4168.2393   -63.129551     37.65699     37.65699     37.65699            0            0            0   0.80994937 
  113000    53376.542     333.1197    17285.607    1984.9401   -1174.2126     810.7275    14266.572   -1590.9906    2659.9553    -3099.277    717.89968     521.8598    685.30491            0    1925.0644   -4168.2417    -63.15665    37.651604    37.651604    37.651604            0            0            0   0.81029705 
  114000    53353.636     333.1197     17588.79    1984.9401   -1168.9748    815.96533    14501.944   -1590.0565    2659.7254   -3098.5752    722.43574     521.8598    685.30491            0    1929.6005   -4168.2441   -63.183765    37.646217    37.646217    37.646217            0            0            0   0.81064493 
  115000    53330.736     333.1197    17891.922    1984.9401   -1163.6934    821.24674     14737.12   -1589.1122    2659.4341   -3097.9246    727.06654     521.8598    685.30491            0    1934.2313   -4168.2466   -63.210895     37.64083     37.64083     37.64083            0            0            0   0.81099301 
  116000    53307.843     333.1197    18196.039    1984.9401   -1158.1428    826.79735     14973.13   -1588.1671    2659.3166   -3097.0995    731.79207     521.8598    685.30491            0    1938.9568    -4168.249   -63.238041    37.635443    37.635443    37.635443            0            0            0   0.81134128 
  117000    53284.957     333.1197    18500.169    1984.9401   -1152.5369    832.40326    15209.004   -1587.2174    2659.1549   -3096.3139    736.61233     521.8598    685.30491            0     1943.777   -4168.2514   -63.265202    37.630057    37.630057    37.630057            0            0            0   0.81168976 
  118000    53262.077     333.1197    18804.296    1984.9401   -1146.8782    838.06196    15444.727   -1586.2604     2658.944   -3095.5702    741.52732     521.8598    685.30491            0     1948.692   -4168.2538   -63.292379     37.62467     37.62467     37.62467            0            0            0   0.81203844 
  119000    53239.204     333.1197    19108.705    1984.9401   -1141.1048    843.83531    15680.582   -1585.2993     2658.749   -3094.8066    746.53705     521.8598    685.30491            0    1953.7018   -4168.2562   -63.319571    37.619283    37.619283    37.619283            0            0            0   0.81238732 
  120000    53216.337     333.1197    19413.298    1984.9401   -1135.2403    849.69982    15916.471    -1584.338    2658.5501   -3094.0465    751.64152     521.8598    685.30491            0    1958.8062   -4168.2586   -63.346779    37.613897    37.613897    37.613897            0            0            0   0.81273639 
  121000    53193.477     333.1197    19717.978    1984.9401   -1129.3042    855.63588    16152.297   -1583.3725    2658.3239   -3093.3097    756.84071     521.8598    685.30491            0    1964.0054   -4168.2611   -63.374003     37.60851     37.60851     37.60851            0            0            0   0.81308567 
  122000    53170.624     333.1197    20022.592    1984.9401   -1123.3289    861.61124     16387.91   -1582.3982    2658.0335   -3092.6282    762.13464     521.8598    685.30491            0    1969.2994   -4168.2635   -63.401242    37.603123    37.603123    37.603123            0            0            0   0.81343515 
  123000    53147.777     333.1197    20329.008    1984.9401   -1116.9025    868.03765     16625.17   -1581.4188    2658.0942   -3091.5905    767.52331     521.8598    685.30491            0     1974.688   -4168.2659   -63.428497    37.597737    37.597737    37.597737            0            0            0   0.81378482 
  124000    53124.936     333.1197    20634.712    1984.9401   -1110.5809    874.35925    16861.571   -1580.4339      2657.95   -3090.7523     773.0067     521.8598    685.30491            0    1980.1714   -4168.2683   -63.455767     37.59235     37.59235     37.59235            0            0            0    0.8141347 
  125000    53102.102     333.1197    20940.248    1984.9401   -1104.2459    880.69419    17097.653   -1579.4474    2657.7226   -3089.9955    778.58483     521.8598    685.30491            0    1985.7495   -4168.2707   -63.483053    37.586963    37.586963    37.586963            0            0            0   0.81448478 
  126000    53079.275     333.1197    21245.927    1984.9401   -1097.8236    887.11649    17333.733   -1578.4488    2657.4759    -3089.246     784.2577     521.8598    685.30491            0    1991.4224   -4168.2731   -63.510355    37.581576    37.581576    37.581576            0            0            0   0.81483506 
  127000    53056.454     333.1197      21552.3    1984.9401   -1091.1966    893.74355    17570.352    -1577.447     2657.336   -3088.3866     790.0253     521.8598    685.30491            0      1997.19   -4168.2755   -63.537672     37.57619     37.57619     37.57619            0            0            0   0.81518554 
  128000     53033.64     333.1197    21858.954    1984.9401   -1084.4554    900.48469    17807.101   -1576.4404    2657.2106   -3087.5078    795.88763     521.8598    685.30491            0    2003.0523    -4168.278   -63.565005    37.570803    37.570803    37.570803            0            0            0   0.81553622 
  129000    53010.832     333.1197    22165.899    1984.9401   -1077.5983    907.34184    18043.989   -1575.4301    2657.1027   -3086.6077    801.84469     521.8598    685.30491            0    2009.0094   -4168.2804   -63.592354    37.565416    37.565416    37.565416            0            0            0    0.8158871 
  130000    52988.031     333.1197    22472.753    1984.9401   -1070.7104    914.22976    18280.636   -1574.4174    2656.9286   -3085.7716    807.89649     521.8598    685.30491            0    2015.0612   -4168.2828   -63.619718     37.56003     37.56003     37.56003            0            0            0   0.81623818 
  131000    52965.236     333.1197    22778.779    1984.9401   -1063.9508    920.98935    18516.313   -1573.3957    2656.5224   -3085.1585    814.04303     521.8598    685.30491            0    2021.2077   -4168.2852   -63.647098    37.554643    37.554643    37.554643            0            0            0   0.81658947 
  132000    52942.448     333.1197    23085.764    1984.9401   -1056.9271    928.01305    18752.792   -1572.3675     2656.279   -3084.3761    820.28429     521.8598    685.30491            0     2027.449   -4168.2876   -63.674494    37.549256    37.549256    37.549256            0            0            0   0.81694096 
  133000    52919.666     333.1197    23393.204    1984.9401   -1049.7532    935.18689    18989.572   -1571.3397    2656.0915   -3083.5382    826.62029     521.8598    685.30491            0     2033.785     -4168.29   -63.701905     37.54387     37.54387     37.54387            0            0            0   0.81729264 
  134000    52896.891     333.1197    23700.311    1984.9401   -1042.5981    942.34206    19225.874    -1570.301    2655.7797   -3082.8138    833.05103     521.8598    685.30491            0    2040.2157   -4168.2924   -63.729333    37.538483    37.538483    37.538483            0            0            0   0.81764453 
  135000    52874.123     333.1197    24008.552    1984.9401   -1035.1413     949.7988     19463.15   -1569.2575    2655.6699   -3081.8825    839.57649     521.8598    685.30491            0    2046.7412   -4168.2949   -63.756776    37.533096    37.533096    37.533096            0            0            0   0.81799663 
  136000    52851.361     333.1197    24316.893    1984.9401   -1027.6111    957.32898    19700.374   -1568.2095    2655.5342   -3080.9725    846.19669     521.8598    685.30491            0    2053.3614   -4168.2973   -63.784234    37.527709    37.527709    37.527709            0            0            0   0.81834892 
  137000    52828.605     333.1197    24624.702    1984.9401   -1020.1475    964.79265     19936.92   -1567.1612     2655.237   -3080.2238    852.91163     521.8598    685.30491            0    2060.0763   -4168.2997   -63.811709    37.522323    37.522323    37.522323            0            0            0   0.81870142 
  138000    52805.856     333.1197    24933.374    1984.9401   -1012.4412    972.49895     20174.17   -1566.1058    2655.0807   -3079.3272     859.7213     521.8598    685.30491            0     2066.886   -4168.3021   -63.839199    37.516936    37.516936    37.516936            0            0            0   0.81905412 
  139000    52783.114     333.1197    25241.503    1984.9401   -1004.8016    980.13853    20410.734   -1565.0436    2654.7561    -3078.592     866.6257     521.8598    685.30491            0    2073.7904   -4168.3045   -63.866705    37.511549    37.511549    37.511549            0            0            0   0.81940702 
  140000    52760.378     333.1197    25550.822    1984.9401   -996.84956    988.09056    20648.324   -1563.9788    2654.6466   -3077.6391    873.62483     521.8598    685.30491            0    2080.7895   -4168.3069   -63.894227    37.506163    37.506163    37.506163            0            0            0   0.81976012 
  141000    52737.649     333.1197     25860.15    1984.9401   -988.84468    996.09543     20885.77   -1562.9102    2654.4915   -3076.7281     880.7187     521.8598    685.30491            0    2087.8834   -4168.3093   -63.921765    37.500776    37.500776    37.500776            0            0            0   0.82011343 
  142000    52714.926     333.1197    26169.172    1984.9401    -980.8507    1004.0894    21122.769   -1561.8278    2654.2168   -3075.9227     887.9073     521.8598    685.30491            0     2095.072   -4168.3118   -63.949318    37.495389    37.495389    37.495389            0            0            0   0.82046694 
  143000     52692.21     333.1197    26478.534    1984.9401   -972.73252    1012.2076     21359.95   -1560.7456    2653.9719   -3075.0879    895.19064     521.8598    685.30491            0    2102.3554   -4168.3142   -63.976888    37.490003    37.490003    37.490003            0            0            0   0.82082066 
  144000      52669.5     333.1197    26788.432    1984.9401    -964.4443    1020.4958    21597.511   -1559.6569    2653.7957   -3074.1777    902.56871     521.8598    685.30491            0    2109.7334   -4168.3166   -64.004473    37.484616    37.484616    37.484616            0            0            0   0.82117457 
  145000    52646.797     333.1197    27098.645    1984.9401   -956.03547    1028.9047    21835.232   -1558.5631    2653.6404   -3073.2417    910.04151     521.8598    685.30491            0    2117.2062    -4168.319   -64.032074    37.479229    37.479229    37.479229            0            0            0   0.82152869 
  146000      52624.1     333.1197    27408.504    1984.9401   -947.65301    1037.2871    22072.451   -1557.4658    2653.3605   -3072.4268    917.60905     521.8598    685.30491            0    2124.7738   -4168.3214   -64.059691    37.473842    37.473842    37.473842            0            0            0   0.82188302 
  147000     52601.41     333.1197    27718.605    1984.9401   -939.16689    1045.7732    22309.758   -1556.3669    2653.0878   -3071.6029    925.27132     521.8598    685.30491            0     2132.436   -4168.3238   -64.087324    37.468456    37.468456    37.468456            0            0            0   0.82223755 
  148000    52578.726     333.1197    28029.348    1984.9401   -930.48703    1054.4531    22547.548   -1555.2596    2652.9057   -3070.6801    933.02833     521.8598    685.30491            0     2140.193   -4168.3262   -64.114972    37.463069    37.463069    37.463069            0            0            0   0.82259228 
  149000    52556.049     333.1197    28340.393    1984.9401   -921.68743    1063.2527    22785.486   -1554.1419    2652.7383   -3069.7322    940.88006     521.8598    685.30491            0    2148.0448   -4168.3287   -64.142637    37.457682    37.457682    37.457682            0            0            0   0.82294721 
  150000    52533.378     333.1197    28651.612    1984.9401   -912.79876    1072.1414    23023.443   -1553.0206    2652.5616     -3068.79    948.82653     521.8598    685.30491            0    2155.9912   -4168.3311   -64.170318    37.452296    37.452296    37.452296            0            0            0   0.82330235 
  150519    52521.615     333.1197    28813.052    1984.9401   -908.18276    1076.7574    23146.803   -1552.4362    2652.4329   -3068.3356     952.9881     521.8598    685.30491            0    2160.1528   -4168.3323    -64.18469      37.4495      37.4495      37.4495            0            0            0   0.82348675 
Loop time of 151.93 on 48 procs for 100000 steps with 2000 atoms

Performance: 56.868 ns/day, 0.422 hours/ns, 658.196 timesteps/s
44.0% CPU use with 48 MPI tasks x 1 OpenMP threads

MPI task timing breakdown:
Section |  min time  |  avg time  |  max time  |%varavg| %total
---------------------------------------------------------------
Pair    | 16.082     | 26.376     | 33.712     |  95.0 | 17.36
Bond    | 0.72707    | 1.0927     | 1.3702     |  14.9 |  0.72
Kspace  | 26.949     | 40.05      | 50.554     |  94.3 | 26.36
Neigh   | 0.0062216  | 0.0072336  | 0.008193   |   0.7 |  0.00
Comm    | 58.68      | 68.599     | 84.423     |  76.9 | 45.15
Output  | 0.1076     | 0.1153     | 0.12893    |   1.1 |  0.08
Modify  | 0.45231    | 0.52358    | 0.80242    |  11.4 |  0.34
Other   |            | 15.17      |            |       |  9.98

Nlocal:    41.6667 ave 52 max 27 min
Histogram: 1 2 9 2 5 4 5 3 8 9
Nghost:    2472.58 ave 2521 max 2428 min
Histogram: 2 2 8 8 5 4 13 1 4 1
Neighs:    11166.4 ave 14301 max 6794 min
Histogram: 1 2 5 6 5 6 3 7 6 7

Total # of neighbors = 535985
Ave neighs/atom = 267.993
Ave special neighs/atom = 4.8
Neighbor list builds = 9
Dangerous builds = 0
# >>>>>>>>>  Equilibration run <<<<<<<<<<<<<<<<<<<<<<<<<<<<<<<<<<

fix             NVT_equib all nvt temp ${simulationTemp} ${simulationTemp} 100
fix             NVT_equib all nvt temp 323 ${simulationTemp} 100
fix             NVT_equib all nvt temp 323 323 100

print           "Step Density Temperature Pressure KinEng PotEng TotEng" file Properties_equib_octanolUA_323.txt
Step Density Temperature Pressure KinEng PotEng TotEng
fix             PRINT_equib all print ${printfreq} "$(v_step) $(v_density) $(v_temp) $(v_press) $(v_pe) $(v_ke) $(v_etotal) $(v_enthalpy)" append Properties_equib_octanolUA_323.txt title ""
fix             PRINT_equib all print 1000 "$(v_step) $(v_density) $(v_temp) $(v_press) $(v_pe) $(v_ke) $(v_etotal) $(v_enthalpy)" append Properties_equib_octanolUA_323.txt title ""
# The 'print' and fix print' commands as used above will create a file named 'Properties_equib.txt' which allows you to quickly make plots to test for equilibration


run             ${NVT_equib}
run             1000000
Ewald initialization ...
  using 12-bit tables for long-range coulomb (src/kspace.cpp:332)
  G vector (1/distance) = 0.149129
  estimated absolute RMS force accuracy = 0.0367822
  estimated relative force accuracy = 0.000110768
  KSpace vectors: actual max1d max3d = 128 4 364
                  kxmax kymax kzmax  = 4 4 4
Per MPI rank memory allocation (min/avg/max) = 17.62 | 17.8 | 18.12 Mbytes
Step Volume Temp Press KinEng PotEng TotEng Enthalpy E_vdwl E_coul E_pair E_bond E_angle E_dihed E_impro E_mol E_long E_tail Lx Ly Lz Xy Xz Yz Density 
  150519    52521.615     333.1197    28813.293    1984.9401   -908.20047    1076.7396    23146.969    -1552.435    2662.6451   -3068.3613    952.99614     521.8598    685.30491            0    2160.1609   -4178.5715    -64.18469      37.4495      37.4495      37.4495            0            0            0   0.82348675 
151000 0.8234867517405469739 314.60983234268900333 -5770.2915941857800135 -1439.5560933798999486 1874.6465080017298988 435.09041462183301974 -3984.802227882869829
  151000    52521.615    314.60983   -5770.2916    1874.6465   -1439.5561    435.09041   -3984.8022   -1687.4122    2569.8506   -3297.2968     684.3696    515.43597    657.93512            0    1857.7407   -4179.7352    -64.18469      37.4495      37.4495      37.4495            0            0            0   0.82348675 
152000 0.8234867517405469739 323.14434067278199336 -2515.3042494480100686 -1487.2086789988800319 1925.5005646578299547 438.29188565894401108 -1488.3654702705400723
  152000    52521.615    323.14434   -2515.3042    1925.5006   -1487.2087    438.29189   -1488.3655   -1718.1573    2593.2866   -3304.2644    639.85388      543.947    633.25484            0    1817.0557   -4179.3937    -64.18469      37.4495      37.4495      37.4495            0            0            0   0.82348675 
153000 0.8234867517405469739 320.20373580441099648 -1069.7568261004500982 -1444.5733616993700252 1907.9785609529299109 463.40519925355999931 -356.00058774596800504
  153000    52521.615    320.20374   -1069.7568    1907.9786   -1444.5734     463.4052   -356.00059   -1710.0805    2617.1862   -3272.7351    671.04667    518.40407      638.711            0    1828.1617   -4179.8408    -64.18469      37.4495      37.4495      37.4495            0            0            0   0.82348675 
154000 0.8234867517405469739 318.62090523383301388 -984.0774145511519464 -1476.3358443771899147 1898.547044525749925 422.21120014855898717 -331.56639553002298726
  154000    52521.615    318.62091   -984.07741     1898.547   -1476.3358     422.2112    -331.5664   -1735.3077    2622.0921   -3292.8118    637.63214    527.32175    651.52204            0    1816.4759   -4179.5961    -64.18469      37.4495      37.4495      37.4495            0            0            0   0.82348675 
155000 0.8234867517405469739 317.14336935070201662 567.40517763815205399 -1469.2326124090500343 1889.7429411602199707 420.51032875116800369 855.1278743339439643
  155000    52521.615    317.14337    567.40518    1889.7429   -1469.2326    420.51033    855.12787   -1706.5422    2589.6293   -3297.0181    668.31711    533.35093    626.11746            0    1827.7855   -4180.1052    -64.18469      37.4495      37.4495      37.4495            0            0            0   0.82348675 
156000 0.8234867517405469739 316.59899176579000368 676.23564326999598961 -1471.6741569256500952 1886.4991914941899722 414.82503456854198021 932.8038741994770362
  156000    52521.615    316.59899    676.23564    1886.4992   -1471.6742    414.82503    932.80387   -1690.7158    2585.3731    -3285.514    653.63684    529.97483    630.22813            0    1813.8398   -4180.1713    -64.18469      37.4495      37.4495      37.4495            0            0            0   0.82348675 
157000 0.8234867517405469739 323.64044119141198053 698.00343021461503668 -1420.3541185033100192 1928.4566486998999153 508.10253019659000984 1042.7549260577000041
  157000    52521.615    323.64044    698.00343    1928.4566   -1420.3541    508.10253    1042.7549    -1720.892    2643.1865   -3256.5346     701.6778    517.68641    616.81624            0    1836.1805   -4178.8291    -64.18469      37.4495      37.4495      37.4495            0            0            0   0.82348675 
158000 0.8234867517405469739 320.53537668735697252 360.94599048189598989 -1477.4090238693499941 1909.9546893482099676 432.54566547885599448 709.02086636471597103
  158000    52521.615    320.53538    360.94599    1909.9547    -1477.409    432.54567    709.02087     -1701.33     2621.927    -3258.429     655.1634     517.4899    608.36667            0      1781.02    -4179.026    -64.18469      37.4495      37.4495      37.4495            0            0            0   0.82348675 
159000 0.8234867517405469739 316.60502015678497401 -1284.8985450973700608 -1435.1890873576101058 1886.5351125016300102 451.34602514401501594 -532.85269915671096896
  159000    52521.615    316.60502   -1284.8985    1886.5351   -1435.1891    451.34603    -532.8527   -1705.2071    2615.0931   -3269.4421    706.27724    504.51008    623.46565            0     1834.253   -4179.3281    -64.18469      37.4495      37.4495      37.4495            0            0            0   0.82348675 
160000 0.8234867517405469739 327.3456391574339932 422.7563991507420269 -1531.5117254196900376 1950.5345868772799349 419.02286145759200053 742.84322091064098004
  160000    52521.615    327.34564     422.7564    1950.5346   -1531.5117    419.02286    742.84322   -1727.9134    2611.2762   -3293.8548    627.09055    512.70612    622.54644            0    1762.3431   -4177.2176    -64.18469      37.4495      37.4495      37.4495            0            0            0   0.82348675 
161000 0.8234867517405469739 330.78435299253300172 947.93243570024503697 -1403.7232754768299401 1971.0246422420000272 567.30136676517304295 1293.3928527421999206
  161000    52521.615    330.78435    947.93244    1971.0246   -1403.7233    567.30137    1293.3929   -1739.3696    2668.6862   -3249.3194    671.61932    523.70568    650.27108            0    1845.5961   -4178.6359    -64.18469      37.4495      37.4495      37.4495            0            0            0   0.82348675 
162000 0.8234867517405469739 330.5607625677599799 126.99523773564600049 -1512.3232369684299101 1969.6923475520900411 457.36911058365899407 554.64414560381203501
  162000    52521.615    330.56076    126.99524    1969.6923   -1512.3232    457.36911    554.64415   -1728.1618     2628.533   -3279.0795    641.42303    489.45141     635.8818            0    1766.7562   -4179.4507    -64.18469      37.4495      37.4495      37.4495            0            0            0   0.82348675 
163000 0.8234867517405469739 317.92948343697298696 453.77274815026402166 -1488.4300511696098965 1894.4271114410601058 405.99706027144600284 753.57513291848295012
  163000    52521.615    317.92948    453.77275    1894.4271   -1488.4301    405.99706    753.57513   -1681.6857    2627.7727   -3232.1522     630.1694    500.76338    612.78934            0    1743.7221   -4178.2392    -64.18469      37.4495      37.4495      37.4495            0            0            0   0.82348675 
164000 0.8234867517405469739 317.34738613877402713 10.924842348767599631 -1534.2079501210400849 1890.9586036094299288 356.75065348839001445 365.11879737326700024
  164000    52521.615    317.34739    10.924842    1890.9586    -1534.208    356.75065     365.1188   -1693.2505    2565.4414   -3305.1025    631.86168    518.79072    620.24217            0    1770.8946   -4177.2934    -64.18469      37.4495      37.4495      37.4495            0            0            0   0.82348675 
165000 0.8234867517405469739 318.26320210270097277 -265.14665760375800119 -1549.5521160691300793 1896.4156205944500471 346.86350452531900146 143.76809036836300493
  165000    52521.615     318.2632   -265.14666    1896.4156   -1549.5521     346.8635    143.76809    -1697.133    2621.7445   -3253.6575     612.8975    516.91844    574.28946            0    1704.1054    -4178.269    -64.18469      37.4495      37.4495      37.4495            0            0            0   0.82348675 
166000 0.8234867517405469739 329.03041641787797289 -550.6044860171240316 -1481.4293579345999206 1960.573566856179923 479.14420892157397702 57.395554290444103174
  166000    52521.615    329.03042   -550.60449    1960.5736   -1481.4294    479.14421    57.395554   -1730.4878    2643.2674   -3265.3072    638.13817    510.45192    635.28772            0    1783.8778   -4178.0868    -64.18469      37.4495      37.4495      37.4495            0            0            0   0.82348675 
167000 0.8234867517405469739 330.68056810177802163 1663.5673633653900652 -1456.2259407119499883 1970.4062255142400772 514.1802848022920216 1788.429433157009953
  167000    52521.615    330.68057    1663.5674    1970.4062   -1456.2259    514.18028    1788.4294   -1685.3902    2610.3378    -3254.244    652.42925    492.02083    653.56798            0    1798.0181   -4179.1916    -64.18469      37.4495      37.4495      37.4495            0            0            0   0.82348675 
168000 0.8234867517405469739 320.24923316733298861 2012.2365255465699647 -1474.4786561777200404 1908.2496633272301096 433.77100714950898919 1975.0916265795699474
  168000    52521.615    320.24923    2012.2365    1908.2497   -1474.4787    433.77101    1975.0916   -1685.5832    2620.8847   -3242.7197     626.4052    542.15789    599.67795            0     1768.241   -4178.0212    -64.18469      37.4495      37.4495      37.4495            0            0            0   0.82348675 
169000 0.8234867517405469739 326.35969940071697692 -255.69528080897899258 -1450.3419000127100844 1944.6597275053800331 494.31782749267301824 298.46192109280900695
  169000    52521.615     326.3597   -255.69528    1944.6597   -1450.3419    494.31783    298.46192   -1674.5975    2586.2834   -3268.2765    656.50306    522.01451    639.41699            0    1817.9346   -4179.9623    -64.18469      37.4495      37.4495      37.4495            0            0            0   0.82348675 
170000 0.8234867517405469739 331.1952445645990224 -752.47345748485895456 -1464.794337044670101 1973.472996907220022 508.67865986254400923 -67.696354143433396189
  170000    52521.615    331.19524   -752.47346     1973.473   -1464.7943    508.67866   -67.696354   -1724.7902    2653.7727   -3249.7563    657.09258    503.01508     624.8543            0     1784.962   -4178.7389    -64.18469      37.4495      37.4495      37.4495            0            0            0   0.82348675 
171000 0.8234867517405469739 328.54729309959799366 -385.72309924562301831 -1418.4147750729300697 1957.6948092699799417 539.2800341970489626 243.82621517035099146
  171000    52521.615    328.54729    -385.7231    1957.6948   -1418.4148    539.28003    243.82622   -1736.6178    2658.2807   -3256.9744    673.70911    510.84571    654.00483            0    1838.5597   -4178.6373    -64.18469      37.4495      37.4495      37.4495            0            0            0   0.82348675 
172000 0.8234867517405469739 336.64967887886098197 -254.14620435269799259 -1560.0038040582599024 2005.9740035166300913 445.97019945837399746 251.30084516251199034
  172000    52521.615    336.64968    -254.1462     2005.974   -1560.0038     445.9702    251.30085   -1706.8233    2560.2111   -3325.2121    644.85624    507.32367    613.02835            0    1765.2083   -4178.5999    -64.18469      37.4495      37.4495      37.4495            0            0            0   0.82348675 
173000 0.8234867517405469739 329.53910764609400985 -1037.3620505937899452 -1479.7998270475000027 1963.6046743950801101 483.80484734758198329 -310.78738775766299796
  173000    52521.615    329.53911   -1037.3621    1963.6047   -1479.7998    483.80485   -310.78739   -1687.8872    2569.2855   -3297.9452    690.01677    525.40532    602.72327            0    1818.1454   -4179.3435    -64.18469      37.4495      37.4495      37.4495            0            0            0   0.82348675 
174000 0.8234867517405469739 332.05210132330097395 662.85089474968299328 -1572.1328340839500015 1978.5786972554799377 406.44586317152601396 914.17233504234297925
  174000    52521.615     332.0521    662.85089    1978.5787   -1572.1328    406.44586    914.17234   -1746.7953    2593.3959   -3333.6573    640.78013    504.85001    615.89429            0    1761.5244   -4180.2578    -64.18469      37.4495      37.4495      37.4495            0            0            0   0.82348675 
175000 0.8234867517405469739 311.83465430646498362 666.05175824361901959 -1505.4863173887399626 1858.1102231184800075 352.62390572973197322 862.80215543111296483
  175000    52521.615    311.83465    666.05176    1858.1102   -1505.4863    352.62391    862.80216    -1742.991    2642.7962   -3279.3662    651.69411    519.39915    602.78666            0    1773.8799   -4179.1714    -64.18469      37.4495      37.4495      37.4495            0            0            0   0.82348675 
176000 0.8234867517405469739 318.99056077996897329 -214.01310821912599636 -1534.5110128368401092 1900.7496885866999037 366.23867574986400086 202.31022482540998908
  176000    52521.615    318.99056   -214.01311    1900.7497    -1534.511    366.23868    202.31022   -1703.1283    2553.3385   -3328.3227    642.96967    546.12545    604.71661            0    1793.8117    -4178.533    -64.18469      37.4495      37.4495      37.4495            0            0            0   0.82348675 
177000 0.8234867517405469739 321.98277463943401244 4.0849540377390898271 -1552.7022466295700269 1918.5792116536499634 365.87696502407698063 369.00593311895897841
  177000    52521.615    321.98277     4.084954    1918.5792   -1552.7022    365.87697    369.00593   -1727.3058    2608.1591   -3297.8068    630.16307    532.15285    582.78861            0    1745.1045     -4178.66    -64.18469      37.4495      37.4495      37.4495            0            0            0   0.82348675 
178000 0.8234867517405469739 322.5526165629430011 496.38497645027200633 -1452.4725517564399979 1921.9746941281300678 469.5021423716950153 849.72006887528800689
  178000    52521.615    322.55262    496.38498    1921.9747   -1452.4726    469.50214    849.72007   -1704.6061    2652.5497     -3230.95    649.24712    507.39188     621.8384            0    1778.4774   -4178.8936    -64.18469      37.4495      37.4495      37.4495            0            0            0   0.82348675 
179000 0.8234867517405469739 319.83644234091298131 757.20504157854099958 -1478.8826960055400832 1905.7899916903900248 426.90729568485500067 1006.9065795187400454
  179000    52521.615    319.83644    757.20504      1905.79   -1478.8827     426.9073    1006.9066   -1718.2257    2596.6178   -3301.3817    679.98548    544.42208     598.0914            0     1822.499   -4179.7738    -64.18469      37.4495      37.4495      37.4495            0            0            0   0.82348675 
180000 0.8234867517405469739 326.34863160861999631 -1420.9112600130199553 -1441.6282181995900373 1944.5937785245400846 502.96556032495499267 -585.41535098145595839
  180000    52521.615    326.34863   -1420.9113    1944.5938   -1441.6282    502.96556   -585.41535   -1715.5078    2642.2587   -3252.0017    649.27299    531.82705    629.27349            0    1810.3735   -4178.7526    -64.18469      37.4495      37.4495      37.4495            0            0            0   0.82348675 
181000 0.8234867517405469739 324.47947299557199585 1802.2995145137099371 -1534.7394590970400259 1933.4561365736899461 398.71667747664997705 1779.2310299602499981
  181000    52521.615    324.47947    1802.2995    1933.4561   -1534.7395    398.71668     1779.231   -1716.5444    2623.9568     -3271.07    622.66333    498.63758    615.02958            0    1736.3305   -4178.4824    -64.18469      37.4495      37.4495      37.4495            0            0            0   0.82348675 
182000 0.8234867517405469739 325.58075757141102713 -368.72570213586101318 -1449.4615481577900482 1940.0182941166999626 490.55674595890400269 208.12248915032100172
  182000    52521.615    325.58076    -368.7257    1940.0183   -1449.4615    490.55675    208.12249   -1754.5132    2659.2809   -3274.4928    655.54068    500.44103    669.04956            0    1825.0313   -4179.2605    -64.18469      37.4495      37.4495      37.4495            0            0            0   0.82348675 
183000 0.8234867517405469739 322.19708064496097677 -732.29632562251299532 -1523.8349010953099878 1919.85618383824999 396.02128274293602317 -164.89857527836099393
  183000    52521.615    322.19708   -732.29633    1919.8562   -1523.8349    396.02128   -164.89858   -1698.9553    2571.5284   -3307.6465      677.417    501.75915    604.63548            0    1783.8116   -4180.2197    -64.18469      37.4495      37.4495      37.4495            0            0            0   0.82348675 
184000 0.8234867517405469739 315.88354166354901054 2686.2151989087401489 -1552.260370194989946 1882.2360824049799248 329.97571220998901254 2387.5463912731102027
  184000    52521.615    315.88354    2686.2152    1882.2361   -1552.2604    329.97571    2387.5464   -1706.2432    2577.2588   -3307.1191    620.80382    498.72135    635.33353            0    1754.8587   -4178.1347    -64.18469      37.4495      37.4495      37.4495            0            0            0   0.82348675 
185000 0.8234867517405469739 323.77074259553199909 -649.46308790671696443 -1568.7818264147499576 1929.2330677660199854 360.45124135127298359 -137.0205201641580004
  185000    52521.615    323.77074   -649.46309    1929.2331   -1568.7818    360.45124   -137.02052   -1748.8462     2605.165   -3322.1181    644.63157    490.92776    617.77699            0    1753.3363    -4178.437    -64.18469      37.4495      37.4495      37.4495            0            0            0   0.82348675 
186000 0.8234867517405469739 318.47156976619697843 985.44233459177803525 -1457.0640416288099459 1897.6572083409200786 440.59316671210598315 1195.4162554904200988
  186000    52521.615    318.47157    985.44233    1897.6572    -1457.064    440.59317    1195.4163   -1724.5282     2633.334   -3272.1751    653.73744    525.50332    635.87026            0     1815.111   -4180.9809    -64.18469      37.4495      37.4495      37.4495            0            0            0   0.82348675 
187000 0.8234867517405469739 333.62348421721299019 -377.57206999449397244 -1516.5940637693299777 1987.9420011066999905 471.34793733736700005 182.13759381409300886
[...]
4123000 0.8234867517405469739 329.17587331870498701 609.74348544494898761 -1535.2220924924599785 1961.4402920604400151 426.21819956797901341 893.26578306424801212
 4123000    52521.615    329.17587    609.74349    1961.4403   -1535.2221     426.2182    893.26578   -1736.8243    2610.1358   -3306.5072    628.00666    548.97385    594.30458            0    1771.2851   -4179.8188    -64.18469      37.4495      37.4495      37.4495            0            0            0   0.82348675 
4124000 0.8234867517405469739 327.21535751917400603 -294.07440942680602802 -1461.0276596557100675 1949.7582855887899314 488.73062593307400903 263.47730946564797705
4124000 0.8234867517405469739 327.21535751917400603 -294.07440942680602802 -1461.0276596557100675 1949.7582855887899314 488.73062593307400903 263.47730946564797705
 4124000    52521.615    327.21536   -294.07441    1949.7583   -1461.0277    488.73063    263.47731   -1732.9328    2649.6377   -3264.0534    650.99524    504.19422    647.83631            0    1803.0258   -4180.7583    -64.18469      37.4495      37.4495      37.4495            0            0            0   0.82348675 
4125000 0.8234867517405469739 329.8454974511889759 -237.3275985251520126 -1574.8763375550900037 1965.4303407257600611 390.5540031706730133 208.76726164073400582
4125000 0.8234867517405469739 329.8454974511889759 -237.3275985251520126 -1574.8763375550900037 1965.4303407257600611 390.5540031706730133 208.76726164073400582
 4125000    52521.615     329.8455    -237.3276    1965.4303   -1574.8763      390.554    208.76726   -1711.6156    2562.1355   -3330.3495     606.3947    521.67612     627.4023            0    1755.4731   -4180.8693    -64.18469      37.4495      37.4495      37.4495            0            0            0   0.82348675 
4126000 0.8234867517405469739 329.13111508858702337 1576.3410556569899654 -1536.7326973931399152 1961.1735939119100749 424.44089651876498692 1631.8769714992299669
4126000 0.8234867517405469739 329.13111508858702337 1576.3410556569899654 -1536.7326973931399152 1961.1735939119100749 424.44089651876498692 1631.8769714992299669
 4126000    52521.615    329.13112    1576.3411    1961.1736   -1536.7327     424.4409     1631.877   -1768.0877     2658.487   -3289.0834    600.86413    532.67223    618.81439            0    1752.3508   -4179.4827    -64.18469      37.4495      37.4495      37.4495            0            0            0   0.82348675 
4127000 0.8234867517405469739 312.90285066126301672 229.26046133260499005 -1543.2204397035600323 1864.4752198875598879 321.25478018399701341 496.86230533614599381
4127000 0.8234867517405469739 312.90285066126301672 229.26046133260499005 -1543.2204397035600323 1864.4752198875598879 321.25478018399701341 496.86230533614599381
 4127000    52521.615    312.90285    229.26046    1864.4752   -1543.2204    321.25478    496.86231   -1686.0062     2558.176   -3307.6762     601.6065    535.00975    627.83949            0    1764.4557    -4179.846    -64.18469      37.4495      37.4495      37.4495            0            0            0   0.82348675 
4128000 0.8234867517405469739 330.53228822199201886 656.50280918597195523 -1571.7152030983800159 1969.522679196639956 397.80747609825601785 900.67148023775405363
4128000 0.8234867517405469739 330.53228822199201886 656.50280918597195523 -1571.7152030983800159 1969.522679196639956 397.80747609825601785 900.67148023775405363
 4128000    52521.615    330.53229    656.50281    1969.5227   -1571.7152    397.80748    900.67148   -1703.4531    2549.8862   -3333.7312    640.05466     502.6757    619.28561            0     1762.016   -4180.1642    -64.18469      37.4495      37.4495      37.4495            0            0            0   0.82348675 
4129000 0.8234867517405469739 320.49192242671898612 -793.2664856308230128 -1588.7626844866099418 1909.6957610834499519 320.93307659684199962 -286.68833146476799811
4129000 0.8234867517405469739 320.49192242671898612 -793.2664856308230128 -1588.7626844866099418 1909.6957610834499519 320.93307659684199962 -286.68833146476799811
 4129000    52521.615    320.49192   -793.26649    1909.6958   -1588.7627    320.93308   -286.68833   -1793.9581    2626.8795   -3346.6652    603.90885     524.3145    629.67917            0    1757.9025   -4179.5865    -64.18469      37.4495      37.4495      37.4495            0            0            0   0.82348675 
4130000 0.8234867517405469739 323.25960120462997338 -931.57283650391502761 -1523.701748134519903 1926.1873605914699965 402.48561245694901345 -311.07484784451702353
4130000 0.8234867517405469739 323.25960120462997338 -931.57283650391502761 -1523.701748134519903 1926.1873605914699965 402.48561245694901345 -311.07484784451702353
 4130000    52521.615     323.2596   -931.57284    1926.1874   -1523.7017    402.48561   -311.07485   -1718.0472     2590.092   -3308.1791    619.21689    517.66311    647.59736            0    1784.4774   -4180.2239    -64.18469      37.4495      37.4495      37.4495            0            0            0   0.82348675 
4131000 0.8234867517405469739 330.86152837254002179 522.72261082918896591 -1594.591461069190018 1971.4845024935200399 376.89304142433400102 777.28490792944205623
4131000 0.8234867517405469739 330.86152837254002179 522.72261082918896591 -1594.591461069190018 1971.4845024935200399 376.89304142433400102 777.28490792944205623
 4131000    52521.615    330.86153    522.72261    1971.4845   -1594.5915    376.89304    777.28491   -1778.9548    2633.2104   -3325.4294    580.33241    533.86739    616.63818            0     1730.838   -4179.6851    -64.18469      37.4495      37.4495      37.4495            0            0            0   0.82348675 
4132000 0.8234867517405469739 324.62559993671402481 224.66326825945000678 -1500.344584106630009 1934.3268543065000813 433.98227019987098174 606.06846553557102197
4132000 0.8234867517405469739 324.62559993671402481 224.66326825945000678 -1500.344584106630009 1934.3268543065000813 433.98227019987098174 606.06846553557102197
 4132000    52521.615     324.6256    224.66327    1934.3269   -1500.3446    433.98227    606.06847   -1732.1631    2605.2142   -3307.4119    661.66345    534.29532    611.10853            0    1807.0673    -4180.463    -64.18469      37.4495      37.4495      37.4495            0            0            0   0.82348675 
4133000 0.8234867517405469739 317.03402083044801429 1351.1221907733499847 -1563.5110173141299583 1889.0913727711399588 325.58035545700698776 1360.5046625996899365
4133000 0.8234867517405469739 317.03402083044801429 1351.1221907733499847 -1563.5110173141299583 1889.0913727711399588 325.58035545700698776 1360.5046625996899365
 4133000    52521.615    317.03402    1351.1222    1889.0914    -1563.511    325.58036    1360.5047   -1707.5255     2576.405   -3311.7917    625.36829    524.01426    598.89812            0    1748.2807   -4180.6713    -64.18469      37.4495      37.4495      37.4495            0            0            0   0.82348675 
4134000 0.8234867517405469739 323.67150679435599159 -233.02440353837599218 -1524.3163481959800265 1928.6417574221700306 404.3254092261880146 225.83480265769199491
4134000 0.8234867517405469739 323.67150679435599159 -233.02440353837599218 -1524.3163481959800265 1928.6417574221700306 404.3254092261880146 225.83480265769199491
 4134000    52521.615    323.67151    -233.0244    1928.6418   -1524.3163    404.32541     225.8348   -1745.9938    2629.4916     -3296.34    642.02172    517.04546    612.95652            0    1772.0237   -4179.8379    -64.18469      37.4495      37.4495      37.4495            0            0            0   0.82348675 
4135000 0.8234867517405469739 331.67698164140398376 262.66107693061900363 -1548.65934532417009 1976.3434943804900286 427.68414905632101863 628.87567334042705625
4135000 0.8234867517405469739 331.67698164140398376 262.66107693061900363 -1548.65934532417009 1976.3434943804900286 427.68414905632101863 628.87567334042705625
 4135000    52521.615    331.67698    262.66108    1976.3435   -1548.6593    427.68415    628.87567   -1732.9965    2589.9733   -3321.4263    651.68401    504.62257     616.4604            0     1772.767   -4178.4031    -64.18469      37.4495      37.4495      37.4495            0            0            0   0.82348675 
4136000 0.8234867517405469739 320.11764611467401664 -125.85793092721900166 -1529.6775655070000539 1907.4655835451999337 377.78801803820698524 281.3841303271260017
4136000 0.8234867517405469739 320.11764611467401664 -125.85793092721900166 -1529.6775655070000539 1907.4655835451999337 377.78801803820698524 281.3841303271260017
 4136000    52521.615    320.11765   -125.85793    1907.4656   -1529.6776    377.78802    281.38413   -1745.8744    2635.4023   -3290.6968     621.9254    515.99787    623.09593            0    1761.0192   -4180.2247    -64.18469      37.4495      37.4495      37.4495            0            0            0   0.82348675 
4137000 0.8234867517405469739 321.2964142832100265 -261.1143342571069752 -1503.2673059223800465 1914.4894378679800866 411.2221319456079982 211.21537214886100742
4137000 0.8234867517405469739 321.2964142832100265 -261.1143342571069752 -1503.2673059223800465 1914.4894378679800866 411.2221319456079982 211.21537214886100742
 4137000    52521.615    321.29641   -261.11433    1914.4894   -1503.2673    411.22213    211.21537   -1774.6232    2678.5936   -3276.2298    642.49781    514.73853    615.72613            0    1772.9625   -4180.2002    -64.18469      37.4495      37.4495      37.4495            0            0            0   0.82348675 
4138000 0.8234867517405469739 316.15471339711700693 321.4425969062870081 -1463.1875301484999454 1883.8518969509400449 420.6643668024399858 666.881000028611993
4138000 0.8234867517405469739 316.15471339711700693 321.4425969062870081 -1463.1875301484999454 1883.8518969509400449 420.6643668024399858 666.881000028611993
 4138000    52521.615    316.15471     321.4426    1883.8519   -1463.1875    420.66437      666.881   -1709.7102     2629.676   -3258.8402     658.3576    535.46663    601.82845            0    1795.6527   -4178.8061    -64.18469      37.4495      37.4495      37.4495            0            0            0   0.82348675 
4139000 0.8234867517405469739 325.23776073395299591 -1070.633130889729955 -1585.5734009940599663 1937.9744996846900449 352.40109869063701353 -467.67591488860699656
4139000 0.8234867517405469739 325.23776073395299591 -1070.633130889729955 -1585.5734009940599663 1937.9744996846900449 352.40109869063701353 -467.67591488860699656
 4139000    52521.615    325.23776   -1070.6331    1937.9745   -1585.5734     352.4011   -467.67591   -1749.8505    2627.8993   -3302.8239    629.49356    495.73085     592.0261            0    1717.2505   -4180.8727    -64.18469      37.4495      37.4495      37.4495            0            0            0   0.82348675 
4140000 0.8234867517405469739 330.87684563873500565 -754.65051133216502421 -1565.7160164249301033 1971.5757725576900157 405.85975613275599017 -172.18282425613099917
4140000 0.8234867517405469739 330.87684563873500565 -754.65051133216502421 -1565.7160164249301033 1971.5757725576900157 405.85975613275599017 -172.18282425613099917
 4140000    52521.615    330.87685   -754.65051    1971.5758    -1565.716    405.85976   -172.18282      -1747.4    2644.9295   -3282.7021    595.25751    533.05672    588.67189            0    1716.9861   -4180.2317    -64.18469      37.4495      37.4495      37.4495            0            0            0   0.82348675 
4141000 0.8234867517405469739 321.21738758999998709 -1541.6725359853001009 -1507.8608099869400121 1914.0185463088700999 406.15773632192900777 -774.72315812349199859
4141000 0.8234867517405469739 321.21738758999998709 -1541.6725359853001009 -1507.8608099869400121 1914.0185463088700999 406.15773632192900777 -774.72315812349199859
 4141000    52521.615    321.21739   -1541.6725    1914.0185   -1507.8608    406.15774   -774.72316   -1747.9602    2658.2305   -3270.3813    648.37066    509.34385    604.80602            0    1762.5205   -4180.6516    -64.18469      37.4495      37.4495      37.4495            0            0            0   0.82348675 
4142000 0.8234867517405469739 311.54374843689697627 -559.59536805085099331 -1433.7356317342701004 1856.3768199743899459 422.64118824011802644 -5.9942471891500304082
4142000 0.8234867517405469739 311.54374843689697627 -559.59536805085099331 -1433.7356317342701004 1856.3768199743899459 422.64118824011802644 -5.9942471891500304082
 4142000    52521.615    311.54375   -559.59537    1856.3768   -1433.7356    422.64119   -5.9942472   -1716.1624    2642.9536   -3253.3522     650.3725    538.08203    631.16204            0    1819.6166   -4180.1435    -64.18469      37.4495      37.4495      37.4495            0            0            0   0.82348675 
4143000 0.8234867517405469739 336.378864687862972 1306.6715864072700697 -1531.3901890625500073 2004.3603194378699754 472.97013037532201452 1473.8464356127899464
4143000 0.8234867517405469739 336.378864687862972 1306.6715864072700697 -1531.3901890625500073 2004.3603194378699754 472.97013037532201452 1473.8464356127899464
 4143000    52521.615    336.37886    1306.6716    2004.3603   -1531.3902    472.97013    1473.8464   -1756.8446    2668.7102   -3267.2197     633.9645     493.1072    608.75784            0    1735.8295   -4179.0853    -64.18469      37.4495      37.4495      37.4495            0            0            0   0.82348675 
4144000 0.8234867517405469739 309.42020425426301244 1632.7298660028400263 -1520.8945393707799667 1843.7233861738100131 322.82884680302299785 1573.4572776461100148
4144000 0.8234867517405469739 309.42020425426301244 1632.7298660028400263 -1520.8945393707799667 1843.7233861738100131 322.82884680302299785 1573.4572776461100148
 4144000    52521.615     309.4202    1632.7299    1843.7234   -1520.8945    322.82885    1573.4573    -1771.436    2673.9621   -3277.4077    635.66428    501.95013    618.89873            0    1756.5131   -4179.9338    -64.18469      37.4495      37.4495      37.4495            0            0            0   0.82348675 
4145000 0.8234867517405469739 314.54672664435702245 1296.3725987669399728 -1518.4524125058499067 1874.2704839082300623 355.81807140238197462 1348.8056211144501049
4145000 0.8234867517405469739 314.54672664435702245 1296.3725987669399728 -1518.4524125058499067 1874.2704839082300623 355.81807140238197462 1348.8056211144501049
 4145000    52521.615    314.54673    1296.3726    1874.2705   -1518.4524    355.81807    1348.8056   -1715.3792    2596.4202   -3299.1585    621.89034    521.01709    637.79868            0    1780.7061   -4180.1995    -64.18469      37.4495      37.4495      37.4495            0            0            0   0.82348675 
4146000 0.8234867517405469739 329.45776959271199757 811.28170351030303209 -1446.4066964423500394 1963.1200102744298874 516.71331383207905219 1138.1339082361701003
4146000 0.8234867517405469739 329.45776959271199757 811.28170351030303209 -1446.4066964423500394 1963.1200102744298874 516.71331383207905219 1138.1339082361701003
 4146000    52521.615    329.45777     811.2817      1963.12   -1446.4067    516.71331    1138.1339   -1720.4803    2689.6125   -3211.1441    614.70624    512.99971    637.03149            0    1764.7374   -4180.2764    -64.18469      37.4495      37.4495      37.4495            0            0            0   0.82348675 
4147000 0.8234867517405469739 316.7387881121189821 -674.398531701021966 -1493.4072449913799119 1887.3321874960199693 393.92494250464602601 -122.64671764937199328
4147000 0.8234867517405469739 316.7387881121189821 -674.398531701021966 -1493.4072449913799119 1887.3321874960199693 393.92494250464602601 -122.64671764937199328
 4147000    52521.615    316.73879   -674.39853    1887.3322   -1493.4072    393.92494   -122.64672   -1715.3983    2600.4161   -3294.9264    644.33429    508.10828    649.07661            0    1801.5192   -4179.9442    -64.18469      37.4495      37.4495      37.4495            0            0            0   0.82348675 
4148000 0.8234867517405469739 332.80265296630602734 -92.852958093330499878 -1519.8951146680299189 1983.0509637646200645 463.15584909659702362 392.03290849424797671
4148000 0.8234867517405469739 332.80265296630602734 -92.852958093330499878 -1519.8951146680299189 1983.0509637646200645 463.15584909659702362 392.03290849424797671
 4148000    52521.615    332.80265   -92.852958     1983.051   -1519.8951    463.15585    392.03291   -1734.9142    2588.8042   -3325.1732     657.8859    501.53347    645.85868            0     1805.278   -4179.0632    -64.18469      37.4495      37.4495      37.4495            0            0            0   0.82348675 
4149000 0.8234867517405469739 332.12977854783900966 -936.81023223069303185 -1505.022783980720078 1979.0415478175500539 474.01876383682400729 -243.55340479182601143
4149000 0.8234867517405469739 332.12977854783900966 -936.81023223069303185 -1505.022783980720078 1979.0415478175500539 474.01876383682400729 -243.55340479182601143
 4149000    52521.615    332.12978   -936.81023    1979.0415   -1505.0228    474.01876    -243.5534   -1742.2904    2629.7666   -3291.6343    644.21579    507.58008    634.81567            0    1786.6115   -4179.1106    -64.18469      37.4495      37.4495      37.4495            0            0            0   0.82348675 
4150000 0.8234867517405469739 320.2427068787720259 -92.551730255273298553 -1496.2805675448400962 1908.2107755277900196 411.93020798295202667 341.0380000365549904
4150000 0.8234867517405469739 320.2427068787720259 -92.551730255273298553 -1496.2805675448400962 1908.2107755277900196 411.93020798295202667 341.0380000365549904
 4150000    52521.615    320.24271    -92.55173    1908.2108   -1496.2806    411.93021      341.038   -1762.7442    2684.8811   -3257.8331    625.98679    495.16916     640.3966            0    1761.5525     -4179.97    -64.18469      37.4495      37.4495      37.4495            0            0            0   0.82348675 
 4150519    52521.615    330.39081    42.651461    1968.6797   -1499.1898    469.48987    502.15977   -1750.9644    2639.3433   -3292.3724    634.06727    528.65234      630.463            0    1793.1826   -4180.7513    -64.18469      37.4495      37.4495      37.4495            0            0            0   0.82348675 
Loop time of 5334.68 on 48 procs for 3000000 steps with 2000 atoms

Performance: 48.588 ns/day, 0.494 hours/ns, 562.358 timesteps/s
43.4% CPU use with 48 MPI tasks x 1 OpenMP threads

MPI task timing breakdown:
Section |  min time  |  avg time  |  max time  |%varavg| %total
---------------------------------------------------------------
Pair    | 654.56     | 779.72     | 926.43     | 185.8 | 14.62
Bond    | 29.569     | 32.991     | 37.671     |  26.1 |  0.62
Kspace  | 914.31     | 1176.6     | 1351.7     | 300.6 | 22.06
Neigh   | 204.33     | 241.97     | 270.88     | 142.2 |  4.54
Comm    | 1995.9     | 2302.6     | 2795.8     | 391.0 | 43.16
Output  | 12.632     | 12.683     | 12.692     |   0.3 |  0.24
Modify  | 161.75     | 474.68     | 669.78     | 551.4 |  8.90
Other   |            | 313.5      |            |       |  5.88

Nlocal:    41.6667 ave 56 max 32 min
Histogram: 7 5 8 4 5 9 3 4 1 2
Nghost:    2465.25 ave 2509 max 2436 min
Histogram: 5 4 5 13 8 4 4 2 1 2
Neighs:    11191.5 ave 15076 max 7596 min
Histogram: 2 5 8 6 4 7 5 4 5 2

Total # of neighbors = 537194
Ave neighs/atom = 268.597
Ave special neighs/atom = 4.8
Neighbor list builds = 273949
Dangerous builds = 0

write_data      restart.${NAME}.final.data
write_data      restart.octanol_ua_323.final.data
Ewald initialization ...
  using 12-bit tables for long-range coulomb (src/kspace.cpp:332)
  G vector (1/distance) = 0.149129
  estimated absolute RMS force accuracy = 0.0367822
  estimated relative force accuracy = 0.000110768
  KSpace vectors: actual max1d max3d = 128 4 364
                  kxmax kymax kzmax  = 4 4 4
Total wall time: 2:02:09
