octanol.data - created by mBuild; units = real

4800 atoms
4600 bonds
8600 angles
11400 dihedrals
0 impropers

6 atom types
8 bond types
14 angle types
15 dihedral types

0.000000 40.000000 xlo xhi
0.000000 40.000000 ylo yhi
0.000000 40.000000 zlo zhi

Masses

1	12.010780	# opls_135
2	12.010780	# opls_136
3	1.007947	# opls_140
4	15.999430	# opls_154
5	1.007947	# opls_155
6	12.010780	# opls_157

Pair Coeffs # lj
#	epsilon (kcal/mol)		sigma (Angstrom)
1	0.06600		3.50000		# opls_135
2	0.06600		3.50000		# opls_136
3	0.03000		2.50000		# opls_140
4	0.17000		3.12000		# opls_154
5	0.00000		10.00000		# opls_155
6	0.06600		3.50000		# opls_157

Bond Coeffs # harmonic
#	k(kcal/mol/angstrom^2)		req(angstrom)
1	268.0		1.529		# opls_135	opls_136
2	268.0		1.529		# opls_136	opls_136
3	268.0		1.529		# opls_136	opls_157
4	320.0		1.41		# opls_154	opls_157
5	340.0		1.09		# opls_135	opls_140
6	340.0		1.09		# opls_136	opls_140
7	340.0		1.09		# opls_140	opls_157
8	553.0		0.945		# opls_154	opls_155

Angle Coeffs # harmonic
#	k(kcal/mol/rad^2)		theteq(deg)
1	58.35		112.70000	# opls_135	opls_136	opls_136
2	37.5		110.70000	# opls_135	opls_136	opls_140
3	37.5		110.70000	# opls_136	opls_135	opls_140
4	58.35		112.70000	# opls_136	opls_136	opls_136
5	37.5		110.70000	# opls_136	opls_136	opls_140
6	58.35		112.70000	# opls_136	opls_136	opls_157
7	50.0		109.50000	# opls_136	opls_157	opls_154
8	37.5		110.70000	# opls_136	opls_157	opls_140
9	37.5		110.70000	# opls_140	opls_136	opls_157
10	55.0		108.50000	# opls_155	opls_154	opls_157
11	35.0		109.50000	# opls_140	opls_157	opls_154
12	33.0		107.80000	# opls_140	opls_135	opls_140
13	33.0		107.80000	# opls_140	opls_136	opls_140
14	33.0		107.80000	# opls_140	opls_157	opls_140

Dihedral Coeffs # opls
#	f1(kcal/mol)	f2(kcal/mol)	f3(kcal/mol)	f4(kcal/mol)
1	1.30000	-0.05000		0.20000		-0.00000	# opls_135	opls_136	opls_136	opls_136
2	-0.00000	-0.00000		0.30000		-0.00000	# opls_135	opls_136	opls_136	opls_140
3	1.30000	-0.05000		0.20000		-0.00000	# opls_136	opls_136	opls_136	opls_136
4	-0.00000	-0.00000		0.30000		-0.00000	# opls_136	opls_136	opls_136	opls_140
5	-0.00000	-0.00000		0.30000		-0.00000	# opls_136	opls_136	opls_135	opls_140
6	1.30000	-0.05000		0.20000		-0.00000	# opls_136	opls_136	opls_136	opls_157
7	1.71100	-0.50000		0.66300		-0.00000	# opls_136	opls_136	opls_157	opls_154
8	-0.00000	-0.00000		0.30000		-0.00000	# opls_136	opls_136	opls_157	opls_140
9	-0.35600	-0.17400		0.49200		-0.00000	# opls_136	opls_157	opls_154	opls_155
10	-0.00000	-0.00000		0.30000		-0.00000	# opls_157	opls_136	opls_136	opls_140
11	0.00000	-0.00000		0.46800		-0.00000	# opls_154	opls_157	opls_136	opls_140
12	-0.00000	-0.00000		0.30000		-0.00000	# opls_140	opls_135	opls_136	opls_140
13	-0.00000	-0.00000		0.30000		-0.00000	# opls_140	opls_136	opls_136	opls_140
14	-0.00000	-0.00000		0.30000		-0.00000	# opls_140	opls_136	opls_157	opls_140
15	0.00000	-0.00000		0.45000		-0.00000	# opls_140	opls_157	opls_154	opls_155

Atoms # full

1	1	1	-0.180000	2.491918	24.650345	21.931878
2	1	2	-0.120000	4.009347	24.586011	21.759708
3	1	2	-0.120000	4.481325	23.266545	21.129419
4	1	2	-0.120000	4.339875	22.071851	22.084643
5	1	2	-0.120000	4.921473	20.796034	21.456979
6	1	2	-0.120000	4.923694	19.603144	22.428744
7	1	6	0.145000	3.524184	19.063454	22.741709
8	1	4	-0.683000	2.890287	18.644382	21.564758
9	1	3	0.060000	1.981608	24.444843	20.966943
10	1	3	0.060000	2.202807	25.666280	22.274296
11	1	3	0.060000	2.150762	23.920173	22.694451
12	1	3	0.060000	4.503103	24.738722	22.743974
13	1	3	0.060000	4.319193	25.422029	21.095783
14	1	3	0.060000	5.552831	23.383342	20.855441
15	1	3	0.060000	3.913590	23.072126	20.192916
16	1	3	0.060000	3.265649	21.911100	22.308693
17	1	3	0.060000	4.874971	22.293566	23.034020
18	1	3	0.060000	4.356711	20.536577	20.535144
19	1	3	0.060000	5.974855	20.991163	21.158377
20	1	3	0.060000	5.424748	19.894273	23.377573
21	1	3	0.060000	5.523021	18.782272	21.977913
22	1	3	0.060000	3.625645	18.198315	23.434137
23	1	3	0.060000	2.914045	19.839693	23.252342
24	1	5	0.418000	1.994245	18.315859	21.836842
25	2	1	-0.180000	4.131541	8.494691	22.772829
26	2	2	-0.120000	2.820740	8.686333	23.535352
27	2	2	-0.120000	2.895598	8.180013	24.984164
28	2	2	-0.120000	2.953207	6.647460	25.071998
29	2	2	-0.120000	2.917646	6.180312	26.535021
30	2	2	-0.120000	2.838042	4.649576	26.668544
31	2	6	0.145000	4.123780	3.928952	26.249713
32	2	4	-0.683000	5.201404	4.362729	27.032801
33	2	3	0.060000	4.976442	8.952512	23.329866
34	2	3	0.060000	4.055665	8.986814	21.780349
35	2	3	0.060000	4.337154	7.416961	22.607667
36	2	3	0.060000	1.995719	8.175372	22.992992
37	2	3	0.060000	2.586470	9.772813	23.555542
38	2	3	0.060000	1.987569	8.537176	25.517784
39	2	3	0.060000	3.780623	8.622169	25.492484
40	2	3	0.060000	3.890588	6.291430	24.598122
41	2	3	0.060000	2.087561	6.214038	24.524636
42	2	3	0.060000	3.809015	6.565053	27.076767
43	2	3	0.060000	2.017659	6.610133	27.027087
44	2	3	0.060000	1.988552	4.264753	26.063264
45	2	3	0.060000	2.626055	4.398898	27.730850
46	2	3	0.060000	3.979224	2.835193	26.394666
47	2	3	0.060000	4.334600	4.105680	25.172734
48	2	5	0.418000	5.996037	3.865535	26.706911
49	3	1	-0.180000	23.533713	19.167499	18.706254
50	3	2	-0.120000	22.066801	19.064304	19.123257
51	3	2	-0.120000	21.670722	20.115731	20.171418
52	3	2	-0.120000	22.288281	19.837116	21.550094
53	3	2	-0.120000	21.782153	20.846399	22.591781
54	3	2	-0.120000	22.268933	20.525732	24.015697
55	3	6	0.145000	23.770924	20.752477	24.216820
56	3	4	-0.683000	24.100809	22.087966	23.951666
57	3	3	0.060000	23.771230	20.199208	18.370232
58	3	3	0.060000	23.727473	18.469255	17.864904
59	3	3	0.060000	24.202549	18.888080	19.546277
60	3	3	0.060000	21.859664	18.042243	19.508457
61	3	3	0.060000	21.437461	19.216040	18.219578
62	3	3	0.060000	20.562555	20.104150	20.264493
63	3	3	0.060000	21.968573	21.128299	19.820489
64	3	3	0.060000	23.392257	19.912499	21.475564
65	3	3	0.060000	22.020109	18.807202	21.872838
66	3	3	0.060000	22.092793	21.874512	22.304482
67	3	3	0.060000	20.670265	20.824898	22.601438
68	3	3	0.060000	22.020534	19.471745	24.267681
69	3	3	0.060000	21.717799	21.174339	24.731122
70	3	3	0.060000	24.026402	20.512127	25.272840
71	3	3	0.060000	24.357298	20.073368	23.560665
72	3	5	0.418000	25.080207	22.162758	24.093202
73	4	1	-0.180000	27.377835	31.527921	4.414359
74	4	2	-0.120000	28.739049	31.461810	3.722190
75	4	2	-0.120000	29.664214	30.395745	4.329310
76	4	2	-0.120000	30.171665	30.780893	5.727132
77	4	2	-0.120000	31.175777	29.743087	6.251201
78	4	2	-0.120000	31.812463	30.155134	7.589919
79	4	6	0.145000	30.837045	30.117938	8.771028
80	4	4	-0.683000	30.318738	28.826517	8.933052
81	4	3	0.060000	26.900850	30.524960	4.431744
82	4	3	0.060000	26.715172	32.223922	3.858105
83	4	3	0.060000	27.481599	31.907029	5.451936
84	4	3	0.060000	29.226617	32.460091	3.762256
85	4	3	0.060000	28.572487	31.212660	2.651719
86	4	3	0.060000	30.536747	30.274547	3.650468
87	4	3	0.060000	29.134472	29.418762	4.374457
88	4	3	0.060000	29.310152	30.838722	6.423157
89	4	3	0.060000	30.661852	31.778017	5.679566
90	4	3	0.060000	30.678848	28.753782	6.353141
91	4	3	0.060000	31.995016	29.629253	5.507735
92	4	3	0.060000	32.241856	31.176834	7.501394
93	4	3	0.060000	32.653799	29.461808	7.808378
94	4	3	0.060000	31.386401	30.413187	9.692577
95	4	3	0.060000	30.012534	30.847260	8.616651
96	4	5	0.418000	29.695092	28.875010	9.703481
97	5	1	-0.180000	20.903509	11.396079	30.920559
98	5	2	-0.120000	21.900571	12.203100	30.089321
99	5	2	-0.120000	23.100501	11.365331	29.620996
100	5	2	-0.120000	24.051272	11.000867	30.771194
101	5	2	-0.120000	25.289201	10.258761	30.245133
102	5	2	-0.120000	26.333383	9.991607	31.343146
103	5	6	0.145000	25.887200	8.949918	32.374478
104	5	4	-0.683000	25.617887	7.727406	31.745515
105	5	3	0.060000	20.584973	10.485406	30.370143
106	5	3	0.060000	20.005827	12.017130	31.124081
107	5	3	0.060000	21.347910	11.104122	31.894379
108	5	3	0.060000	22.251058	13.080207	30.675612
109	5	3	0.060000	21.371358	12.589695	29.191432
110	5	3	0.060000	23.659703	11.961852	28.867148
111	5	3	0.060000	22.741031	10.440167	29.118987
112	5	3	0.060000	23.515842	10.351037	31.493023
113	5	3	0.060000	24.371201	11.929249	31.293261
114	5	3	0.060000	24.982727	9.302125	29.768715
115	5	3	0.060000	25.774186	10.880878	29.461162
116	5	3	0.060000	26.579197	10.941998	31.865082
117	5	3	0.060000	27.267398	9.629350	30.860799
118	5	3	0.060000	26.706764	8.811409	33.114306
119	5	3	0.060000	24.988784	9.306911	32.923083
120	5	5	0.418000	25.330220	7.105957	32.463774
121	6	1	-0.180000	18.064191	33.029074	21.149446
122	6	2	-0.120000	18.480304	32.392392	22.475287
123	6	2	-0.120000	18.269081	30.870571	22.496838
124	6	2	-0.120000	16.784011	30.481073	22.547924
125	6	2	-0.120000	16.620407	28.959106	22.677461
126	6	2	-0.120000	15.154253	28.532802	22.867131
127	6	6	0.145000	14.290575	28.730710	21.617037
128	6	4	-0.683000	14.807661	27.989573	20.546523
129	6	3	0.060000	18.573429	32.526805	20.299652
130	6	3	0.060000	18.352442	34.101394	21.149267
131	6	3	0.060000	16.964994	32.968237	21.011164
132	6	3	0.060000	17.920840	32.868781	23.309522
133	6	3	0.060000	19.560876	32.598461	22.635376
134	6	3	0.060000	18.777930	30.468214	23.400173
135	6	3	0.060000	18.750944	30.410717	21.606051
136	6	3	0.060000	16.286444	30.823540	21.617792
137	6	3	0.060000	16.301782	30.979794	23.417138
138	6	3	0.060000	17.052389	28.454924	21.785696
139	6	3	0.060000	17.191587	28.611228	23.566047
140	6	3	0.060000	14.707087	29.096861	23.714459
141	6	3	0.060000	15.132964	27.455314	23.140698
142	6	3	0.060000	13.257965	28.382430	21.842059
143	6	3	0.060000	14.236671	29.808136	21.349065
144	6	5	0.418000	14.209835	28.167366	19.774615
145	7	1	-0.180000	32.544691	34.212432	23.983224
146	7	2	-0.120000	33.901201	33.755207	23.447317
147	7	2	-0.120000	33.776439	32.768381	22.276152
148	7	2	-0.120000	33.263332	31.389461	22.717800
149	7	2	-0.120000	33.256371	30.403771	21.539540
150	7	2	-0.120000	32.877381	28.973914	21.962855
151	7	6	0.145000	31.408078	28.823320	22.370668
152	7	4	-0.683000	30.569206	29.182182	21.307571
153	7	3	0.060000	31.918731	34.620127	23.161210
154	7	3	0.060000	32.697558	35.011075	24.739373
155	7	3	0.060000	32.011300	33.372037	24.473414
156	7	3	0.060000	34.493173	33.299791	24.270761
157	7	3	0.060000	34.454494	34.651758	23.092646
158	7	3	0.060000	34.784503	32.648695	21.821936
159	7	3	0.060000	33.104238	33.191126	21.497312
160	7	3	0.060000	32.231827	31.494683	23.111406
161	7	3	0.060000	33.917069	30.994407	23.526108
162	7	3	0.060000	32.563044	30.764346	20.748757
163	7	3	0.060000	34.275946	30.366572	21.096897
164	7	3	0.060000	33.526499	28.648357	22.804725
165	7	3	0.060000	33.076099	28.289268	21.109600
166	7	3	0.060000	31.224027	27.760246	22.643091
167	7	3	0.060000	31.187049	29.447689	23.263345
168	7	5	0.418000	29.640801	29.068883	21.639348
169	8	1	-0.180000	18.224496	21.721590	4.841957
170	8	2	-0.120000	17.463008	20.397873	4.907372
171	8	2	-0.120000	17.030796	20.029918	6.335245
172	8	2	-0.120000	18.215147	19.620845	7.223910
173	8	2	-0.120000	17.729583	19.158118	8.605952
174	8	2	-0.120000	18.868811	18.612031	9.484171
175	8	6	0.145000	19.850260	19.689587	9.956898
176	8	4	-0.683000	19.177594	20.666598	10.702305
177	8	3	0.060000	17.636024	22.533245	5.320147
178	8	3	0.060000	18.401070	21.992855	3.779792
179	8	3	0.060000	19.210474	21.633938	5.343177
180	8	3	0.060000	18.087953	19.586429	4.475056
181	8	3	0.060000	16.551266	20.490362	4.278166
182	8	3	0.060000	16.320233	19.177068	6.267577
183	8	3	0.060000	16.488330	20.884340	6.796607
184	8	3	0.060000	18.893484	20.489492	7.347651
185	8	3	0.060000	18.775839	18.794930	6.733715
186	8	3	0.060000	17.214380	19.995080	9.125675
187	8	3	0.060000	16.986070	18.342247	8.470333
188	8	3	0.060000	19.426412	17.826979	8.928417
189	8	3	0.060000	18.422286	18.127597	10.379834
190	8	3	0.060000	20.624468	19.207418	10.594339
191	8	3	0.060000	20.364506	20.154386	9.087946
192	8	5	0.418000	19.864917	21.330966	10.968854
193	9	1	-0.180000	11.390111	24.022277	29.187641
194	9	2	-0.120000	12.139618	22.855467	28.544863
195	9	2	-0.120000	11.743833	22.630103	27.077353
196	9	2	-0.120000	10.325285	22.059574	26.929134
197	9	2	-0.120000	10.010343	21.748297	25.458132
198	9	2	-0.120000	8.651281	21.050386	25.275951
199	9	6	0.145000	7.451084	21.959839	25.559257
200	9	4	-0.683000	7.470140	23.070181	24.705185
201	9	3	0.060000	11.508886	24.943802	28.579008
202	9	3	0.060000	11.803902	24.212755	30.200288
203	9	3	0.060000	10.311450	23.785858	29.295592
204	9	3	0.060000	11.965298	21.929769	29.135278
205	9	3	0.060000	13.228002	23.078216	28.583995
206	9	3	0.060000	12.468608	21.911935	26.634897
207	9	3	0.060000	11.829004	23.584965	26.513310
208	9	3	0.060000	9.593835	22.801303	27.309683
209	9	3	0.060000	10.237749	21.128343	27.530756
210	9	3	0.060000	10.042719	22.683742	24.858176
211	9	3	0.060000	10.795565	21.069327	25.059037
212	9	3	0.060000	8.597857	20.157078	25.935673
213	9	3	0.060000	8.577849	20.690060	24.226644
214	9	3	0.060000	6.518305	21.378038	25.387072
215	9	3	0.060000	7.456375	22.290202	26.620574
216	9	5	0.418000	6.676492	23.615517	24.945145
217	10	1	-0.180000	32.545921	23.816753	15.408632
218	10	2	-0.120000	31.607785	24.779727	16.135923
219	10	2	-0.120000	30.652966	24.063358	17.103474
220	10	2	-0.120000	29.573812	23.249296	16.373760
221	10	2	-0.120000	28.578262	22.639323	17.372130
222	10	2	-0.120000	27.403272	21.926881	16.679928
223	10	6	0.145000	27.804795	20.631603	15.966573
224	10	4	-0.683000	28.364655	19.727641	16.878753
225	10	3	0.060000	33.092501	23.181057	16.137254
226	10	3	0.060000	33.287891	24.398153	14.821765
227	10	3	0.060000	31.980124	23.171657	14.705226
228	10	3	0.060000	31.028644	25.369096	15.392193
229	10	3	0.060000	32.227939	25.493757	16.720130
230	10	3	0.060000	30.157738	24.837491	17.729812
231	10	3	0.060000	31.232658	23.400615	17.783098
232	10	3	0.060000	30.059781	22.434518	15.799330
233	10	3	0.060000	29.028397	23.911246	15.665843
234	10	3	0.060000	29.106507	21.934100	18.050120
235	10	3	0.060000	28.156809	23.453692	18.001440
236	10	3	0.060000	26.926597	22.615329	15.948556
237	10	3	0.060000	26.638081	21.681005	17.448238
238	10	3	0.060000	26.894154	20.181161	15.512644
239	10	3	0.060000	28.524089	20.846811	15.146900
240	10	5	0.418000	28.606271	18.920980	16.353617
241	11	1	-0.180000	24.053727	25.668094	26.441799
242	11	2	-0.120000	23.954693	24.882597	25.134298
243	11	2	-0.120000	24.674131	25.576481	23.967271
244	11	2	-0.120000	23.945016	26.842656	23.492986
245	11	2	-0.120000	24.635614	27.443513	22.259302
246	11	2	-0.120000	23.864033	28.636116	21.667963
247	11	6	0.145000	23.892739	29.886104	22.553710
248	11	4	-0.683000	25.213605	30.303432	22.763022
249	11	3	0.060000	25.114822	25.892024	26.681970
250	11	3	0.060000	23.625231	25.063010	27.268372
251	11	3	0.060000	23.480569	26.615854	26.376252
252	11	3	0.060000	22.885503	24.714982	24.880068
253	11	3	0.060000	24.422185	23.886371	25.291500
254	11	3	0.060000	24.728767	24.854985	23.122706
255	11	3	0.060000	25.716399	25.827897	24.263290
256	11	3	0.060000	23.945835	27.590583	24.311891
257	11	3	0.060000	22.892184	26.588911	23.240084
258	11	3	0.060000	25.672555	27.749962	22.517945
259	11	3	0.060000	24.706074	26.661865	21.471323
260	11	3	0.060000	22.807807	28.343259	21.481666
261	11	3	0.060000	24.313140	28.893599	20.683952
262	11	3	0.060000	23.327004	30.695649	22.041074
263	11	3	0.060000	23.393947	29.684179	23.526333
264	11	5	0.418000	25.159771	31.105666	23.344718
265	12	1	-0.180000	35.186695	3.025110	24.535340
266	12	2	-0.120000	36.306266	2.997582	23.495065
267	12	2	-0.120000	37.059518	4.333179	23.396011
268	12	2	-0.120000	36.215012	5.440926	22.748357
269	12	2	-0.120000	37.038914	6.725169	22.569930
270	12	2	-0.120000	36.275738	7.819417	21.803444
271	12	6	0.145000	35.111900	8.425400	22.594712
272	12	4	-0.683000	35.578785	8.995863	23.786036
273	12	3	0.060000	35.578966	3.355012	25.520752
274	12	3	0.060000	34.763392	2.004776	24.647992
275	12	3	0.060000	34.368917	3.703561	24.215963
276	12	3	0.060000	35.887270	2.719485	22.503602
277	12	3	0.060000	37.031494	2.207059	23.786347
278	12	3	0.060000	37.969398	4.166790	22.778545
279	12	3	0.060000	37.393040	4.653496	24.407604
280	12	3	0.060000	35.340085	5.655801	23.395143
281	12	3	0.060000	35.851096	5.094614	21.756170
282	12	3	0.060000	37.361692	7.108505	23.562362
283	12	3	0.060000	37.957503	6.484556	21.991008
284	12	3	0.060000	35.891697	7.406626	20.845214
285	12	3	0.060000	36.988406	8.634139	21.549270
286	12	3	0.060000	34.632949	9.213078	21.971506
287	12	3	0.060000	34.345817	7.650212	22.813262
288	12	5	0.418000	34.779763	9.360282	24.248217
289	13	1	-0.180000	25.481303	12.096647	7.192471
290	13	2	-0.120000	26.028450	13.316874	7.932772
291	13	2	-0.120000	25.484310	14.642624	7.378410
292	13	2	-0.120000	26.053089	14.980940	5.992126
293	13	2	-0.120000	25.569483	16.361501	5.522970
294	13	2	-0.120000	26.219913	16.801184	4.199740
295	13	6	0.145000	25.751174	15.991487	2.986267
296	13	4	-0.683000	24.363776	16.107909	2.830592
297	13	3	0.060000	24.370835	12.116142	7.177336
298	13	3	0.060000	25.810683	11.172287	7.712111
299	13	3	0.060000	25.865607	12.062105	6.152195
300	13	3	0.060000	27.139357	13.311203	7.890957
301	13	3	0.060000	25.732656	13.236163	9.001285
302	13	3	0.060000	25.764750	15.450506	8.089404
303	13	3	0.060000	24.373607	14.604459	7.333209
304	13	3	0.060000	25.720771	14.211760	5.265539
305	13	3	0.060000	27.164241	14.974659	6.037988
306	13	3	0.060000	24.462263	16.360424	5.422395
307	13	3	0.060000	25.832902	17.115856	6.296540
308	13	3	0.060000	27.326092	16.727953	4.283948
309	13	3	0.060000	25.972851	17.870894	4.023806
310	13	3	0.060000	26.258713	16.388407	2.079032
311	13	3	0.060000	26.037874	14.923375	3.098080
312	13	5	0.418000	24.128793	15.558705	2.038123
313	14	1	-0.180000	10.793891	8.905405	3.315241
314	14	2	-0.120000	11.833342	7.852132	2.932450
315	14	2	-0.120000	11.220449	6.458016	2.727947
316	14	2	-0.120000	10.763188	5.814745	4.045850
317	14	2	-0.120000	10.257997	4.383122	3.810975
318	14	2	-0.120000	9.914898	3.651470	5.120283
319	14	6	0.145000	8.668655	4.200874	5.822334
320	14	4	-0.683000	7.552844	4.100676	4.981151
321	14	3	0.060000	9.964581	8.920376	2.576480
322	14	3	0.060000	11.272381	9.907318	3.328554
323	14	3	0.060000	10.385188	8.705817	4.327260
324	14	3	0.060000	12.626896	7.811576	3.709960
325	14	3	0.060000	12.312596	8.167307	1.980239
326	14	3	0.060000	11.994382	5.810214	2.260815
327	14	3	0.060000	10.364231	6.522941	2.020956
328	14	3	0.060000	9.945125	6.423181	4.482403
329	14	3	0.060000	11.614918	5.793356	4.760622
330	14	3	0.060000	9.372070	4.399971	3.139482
331	14	3	0.060000	11.054447	3.801432	3.297016
332	14	3	0.060000	10.780425	3.703764	5.816139
333	14	3	0.060000	9.742136	2.577667	4.889256
334	14	3	0.060000	8.490281	3.603933	6.744321
335	14	3	0.060000	8.828467	5.258200	6.125790
336	14	5	0.418000	6.789186	4.477033	5.491082
337	15	1	-0.180000	33.930161	26.663484	29.814914
338	15	2	-0.120000	34.494045	27.800260	30.667056
339	15	2	-0.120000	33.890375	27.841089	32.079477
340	15	2	-0.120000	32.424475	28.300309	32.082209
341	15	2	-0.120000	31.893497	28.431186	33.517780
342	15	2	-0.120000	30.471898	29.016960	33.574730
343	15	6	0.145000	29.394820	28.068076	33.038665
344	15	4	-0.683000	29.387000	26.876056	33.774659
345	15	3	0.060000	34.038713	25.691519	30.341457
346	15	3	0.060000	34.488455	26.609637	28.856600
347	15	3	0.060000	32.860252	26.840477	29.580338
348	15	3	0.060000	34.327865	28.770851	30.151081
349	15	3	0.060000	35.592035	27.653228	30.759404
350	15	3	0.060000	34.491527	28.552639	32.687050
351	15	3	0.060000	33.974257	26.838676	32.554125
352	15	3	0.060000	31.810344	27.558315	31.532402
353	15	3	0.060000	32.345097	29.283155	31.567900
354	15	3	0.060000	31.918925	27.440801	34.022303
355	15	3	0.060000	32.563201	29.112370	34.087285
356	15	3	0.060000	30.436910	29.970599	33.004261
357	15	3	0.060000	30.231739	29.257213	34.633444
358	15	3	0.060000	28.404816	28.567051	33.134224
359	15	3	0.060000	29.566906	27.854472	31.961482
360	15	5	0.418000	28.677376	26.309851	33.373794
361	16	1	-0.180000	13.169069	30.638041	25.910042
362	16	2	-0.120000	14.196317	31.763773	25.792326
363	16	2	-0.120000	14.380059	32.541354	27.104815
364	16	2	-0.120000	13.165399	33.417100	27.447485
365	16	2	-0.120000	13.432698	34.257582	28.705288
366	16	2	-0.120000	12.296322	35.248989	29.010383
367	16	6	0.145000	11.002843	34.574909	29.479816
368	16	4	-0.683000	11.236369	33.833159	30.645120
369	16	3	0.060000	13.422115	29.967300	26.758466
370	16	3	0.060000	13.169896	30.039362	24.974873
371	16	3	0.060000	12.148768	31.049409	26.054332
372	16	3	0.060000	13.898675	32.456219	24.975122
373	16	3	0.060000	15.173472	31.314178	25.511684
374	16	3	0.060000	15.273826	33.193620	26.992731
375	16	3	0.060000	14.582935	31.832361	27.937479
376	16	3	0.060000	12.285891	32.765106	27.624598
377	16	3	0.060000	12.944708	34.092429	26.591898
378	16	3	0.060000	13.601233	33.589580	29.577883
379	16	3	0.060000	14.363535	34.846576	28.552059
380	16	3	0.060000	12.083024	35.862947	28.108360
381	16	3	0.060000	12.639032	35.943416	29.808251
382	16	3	0.060000	10.248680	35.365457	29.690741
383	16	3	0.060000	10.595066	33.918563	28.680760
384	16	5	0.418000	10.366696	33.421506	30.888139
385	17	1	-0.180000	23.969267	37.525970	2.844138
386	17	2	-0.120000	23.966697	36.003208	2.976652
387	17	2	-0.120000	24.841110	35.505459	4.137973
388	17	2	-0.120000	26.342563	35.677447	3.862636
389	17	2	-0.120000	27.181264	35.070362	4.997519
390	17	2	-0.120000	28.690958	35.099364	4.702055
391	17	6	0.145000	29.294389	36.507606	4.725830
392	17	4	-0.683000	29.101411	37.098105	5.981510
393	17	3	0.060000	23.689357	38.001089	3.808327
394	17	3	0.060000	23.229850	37.829892	2.073520
395	17	3	0.060000	24.967384	37.891981	2.526563
396	17	3	0.060000	24.302042	35.545172	2.020806
397	17	3	0.060000	22.921150	35.672287	3.158455
398	17	3	0.060000	24.624464	34.425221	4.289571
399	17	3	0.060000	24.563976	36.039008	5.073753
400	17	3	0.060000	26.574463	36.758506	3.775837
401	17	3	0.060000	26.601203	35.177050	2.903725
402	17	3	0.060000	26.968458	35.601281	5.950878
403	17	3	0.060000	26.883662	34.007580	5.134553
404	17	3	0.060000	28.887609	34.633160	3.712070
405	17	3	0.060000	29.211695	34.482112	5.466323
406	17	3	0.060000	30.384909	36.428413	4.519166
407	17	3	0.060000	28.841011	37.137665	3.930193
408	17	5	0.418000	29.506479	38.002333	5.925498
409	18	1	-0.180000	15.428243	32.622034	8.905716
410	18	2	-0.120000	14.646031	31.641813	9.779605
411	18	2	-0.120000	13.681140	30.761897	8.969819
412	18	2	-0.120000	12.477573	31.548281	8.428726
413	18	2	-0.120000	11.485634	30.613616	7.719934
414	18	2	-0.120000	10.200239	31.335127	7.278910
415	18	6	0.145000	10.415043	32.324018	6.128347
416	18	4	-0.683000	10.929474	31.660653	5.006754
417	18	3	0.060000	15.947071	32.083063	8.084695
418	18	3	0.060000	16.190889	33.139765	9.524814
419	18	3	0.060000	14.753890	33.391245	8.476044
420	18	3	0.060000	14.088969	32.202122	10.561672
421	18	3	0.060000	15.374389	30.979653	10.296100
422	18	3	0.060000	13.311828	29.954576	9.639648
423	18	3	0.060000	14.226886	30.278909	8.129554
424	18	3	0.060000	12.836523	32.312301	7.709402
425	18	3	0.060000	11.964008	32.061878	9.270908
426	18	3	0.060000	11.975652	30.136485	6.843417
427	18	3	0.060000	11.194045	29.801422	8.421479
428	18	3	0.060000	9.756288	31.871986	8.145383
429	18	3	0.060000	9.461907	30.571163	6.951043
430	18	3	0.060000	9.434892	32.782254	5.868464
431	18	3	0.060000	11.101359	33.140480	6.441271
432	18	5	0.418000	11.049880	32.354769	4.307788
433	19	1	-0.180000	22.897479	11.172184	9.104779
434	19	2	-0.120000	22.112871	12.461027	8.860552
435	19	2	-0.120000	22.353620	13.519425	9.948142
436	19	2	-0.120000	21.706365	13.145176	11.290063
437	19	2	-0.120000	21.877473	14.275974	12.315708
438	19	2	-0.120000	21.129701	14.002585	13.632300
439	19	6	0.145000	21.743445	12.871140	14.463559
440	19	4	-0.683000	23.071685	13.173534	14.790668
441	19	3	0.060000	23.977861	11.393368	9.237445
442	19	3	0.060000	22.780340	10.498284	8.230082
443	19	3	0.060000	22.514874	10.642056	10.001236
444	19	3	0.060000	21.028311	12.228738	8.785279
445	19	3	0.060000	22.434016	12.883167	7.883622
446	19	3	0.060000	21.917163	14.478785	9.593225
447	19	3	0.060000	23.446120	13.676877	10.085302
448	19	3	0.060000	22.185018	12.223763	11.679793
449	19	3	0.060000	20.622924	12.948255	11.134567
450	19	3	0.060000	22.957878	14.443149	12.517777
451	19	3	0.060000	21.469948	15.216459	11.884127
452	19	3	0.060000	20.065948	13.762597	13.415688
453	19	3	0.060000	21.140212	14.931562	14.243172
454	19	3	0.060000	21.150213	12.757226	15.398071
455	19	3	0.060000	21.692975	11.909797	13.907830
456	19	5	0.418000	23.407371	12.402960	15.318283
457	20	1	-0.180000	25.269833	15.007841	21.569390
458	20	2	-0.120000	24.542805	16.349569	21.656378
459	20	2	-0.120000	24.474212	16.897363	23.090336
460	20	2	-0.120000	23.516249	16.095089	23.983877
461	20	2	-0.120000	23.394350	16.738414	25.373554
462	20	2	-0.120000	22.343250	16.046483	26.258844
463	20	6	0.145000	22.752186	14.641533	26.713516
464	20	4	-0.683000	23.946181	14.695340	27.444368
465	20	3	0.060000	26.275505	15.079090	22.035540
466	20	3	0.060000	25.394761	14.725056	20.502908
467	20	3	0.060000	24.684634	14.209569	22.070748
468	20	3	0.060000	23.518773	16.246730	21.236049
469	20	3	0.060000	25.091580	17.083268	21.026886
470	20	3	0.060000	24.119720	17.950123	23.036842
471	20	3	0.060000	25.491964	16.907171	23.538938
472	20	3	0.060000	23.901796	15.060973	24.093229
473	20	3	0.060000	22.512847	16.055082	23.505979
474	20	3	0.060000	24.383684	16.733623	25.880750
475	20	3	0.060000	23.087758	17.800476	25.251578
476	20	3	0.060000	21.375431	15.988292	25.714760
477	20	3	0.060000	22.176235	16.672418	27.162494
478	20	3	0.060000	21.943827	14.229143	27.357493
479	20	3	0.060000	22.867317	13.967977	25.836801
480	20	5	0.418000	24.154894	13.759339	27.699690
481	21	1	-0.180000	26.632829	5.865823	30.163549
482	21	2	-0.120000	26.917105	4.501076	30.790465
483	21	2	-0.120000	28.416724	4.169926	30.840479
484	21	2	-0.120000	29.003210	3.875530	29.451552
485	21	2	-0.120000	30.473907	3.444519	29.557423
486	21	2	-0.120000	31.064964	3.010220	28.204887
487	21	6	0.145000	31.256160	4.167028	27.218439
488	21	4	-0.683000	32.114988	5.131746	27.761022
489	21	3	0.060000	27.216671	6.659194	30.676811
490	21	3	0.060000	25.552445	6.100618	30.266504
491	21	3	0.060000	26.882698	5.862392	29.082526
492	21	3	0.060000	26.368919	3.712224	30.230912
493	21	3	0.060000	26.525003	4.508356	31.830624
494	21	3	0.060000	28.546615	3.271999	31.483664
495	21	3	0.060000	28.971931	5.008086	31.316288
496	21	3	0.060000	28.935068	4.789652	28.827262
497	21	3	0.060000	28.414842	3.065668	28.967044
498	21	3	0.060000	31.079599	4.269551	29.991604
499	21	3	0.060000	30.544850	2.578402	30.251440
500	21	3	0.060000	30.412633	2.238021	27.742004
501	21	3	0.060000	32.055086	2.538607	28.387951
502	21	3	0.060000	31.700287	3.762944	26.281592
503	21	3	0.060000	30.276094	4.624492	26.962000
504	21	5	0.418000	32.188810	5.849042	27.079197
505	22	1	-0.180000	33.688630	2.617406	20.930535
506	22	2	-0.120000	32.850938	3.865184	21.209270
507	22	2	-0.120000	32.587642	4.699560	19.946134
508	22	2	-0.120000	33.847794	5.416691	19.438694
509	22	2	-0.120000	33.518956	6.322798	18.242548
510	22	2	-0.120000	34.723420	7.163749	17.784962
511	22	6	0.145000	35.832763	6.338812	17.124146
512	22	4	-0.683000	35.336052	5.670082	15.997762
513	22	3	0.060000	33.227902	2.012036	20.121211
514	22	3	0.060000	33.741033	1.996121	21.849347
515	22	3	0.060000	34.723847	2.894207	20.642845
516	22	3	0.060000	33.353842	4.487097	21.981415
517	22	3	0.060000	31.872422	3.540676	21.625115
518	22	3	0.060000	31.815882	5.460753	20.194737
519	22	3	0.060000	32.173181	4.049171	19.144651
520	22	3	0.060000	34.596275	4.659621	19.127855
521	22	3	0.060000	34.278453	6.030675	20.259887
522	22	3	0.060000	33.137975	5.709679	17.396976
523	22	3	0.060000	32.708193	7.024970	18.536605
524	22	3	0.060000	35.145190	7.716507	18.652519
525	22	3	0.060000	34.366920	7.921239	17.053259
526	22	3	0.060000	36.648856	7.028535	16.813518
527	22	3	0.060000	36.258377	5.610397	17.847905
528	22	5	0.418000	36.097975	5.154421	15.625721
529	23	1	-0.180000	23.613481	33.497855	8.044955
530	23	2	-0.120000	23.688520	34.884016	8.684720
531	23	2	-0.120000	25.038483	35.577715	8.445130
532	23	2	-0.120000	26.183802	34.931297	9.238944
533	23	2	-0.120000	27.490197	35.718665	9.056423
534	23	2	-0.120000	28.633097	35.186752	9.938561
535	23	6	0.145000	29.154472	33.812540	9.505489
536	23	4	-0.683000	29.630852	33.866018	8.189107
537	23	3	0.060000	23.866154	33.553477	6.964765
538	23	3	0.060000	22.581305	33.101082	8.145659
539	23	3	0.060000	24.304187	32.792466	8.551324
540	23	3	0.060000	23.487584	34.802818	9.775098
541	23	3	0.060000	22.887132	35.514547	8.242073
542	23	3	0.060000	24.937054	36.639575	8.759765
543	23	3	0.060000	25.278584	35.569801	7.359105
544	23	3	0.060000	26.331618	33.891690	8.882058
545	23	3	0.060000	25.915749	34.905362	10.317961
546	23	3	0.060000	27.794527	35.703967	7.987208
547	23	3	0.060000	27.311737	36.779836	9.337347
548	23	3	0.060000	28.295694	35.133834	10.996600
549	23	3	0.060000	29.476313	35.910324	9.897302
550	23	3	0.060000	29.984116	33.518621	10.186312
551	23	3	0.060000	28.352832	33.047639	9.594167
552	23	5	0.418000	29.944090	32.949623	7.972430
553	24	1	-0.180000	32.472575	35.017857	8.744760
554	24	2	-0.120000	32.418284	35.457591	7.281866
555	24	2	-0.120000	32.362864	34.272152	6.305811
556	24	2	-0.120000	33.691638	33.504862	6.232461
557	24	2	-0.120000	33.627843	32.398188	5.168915
558	24	2	-0.120000	34.978802	31.690439	4.965638
559	24	6	0.145000	35.398977	30.816722	6.152194
560	24	4	-0.683000	34.437986	29.825580	6.390511
561	24	3	0.060000	31.632700	34.328559	8.975464
562	24	3	0.060000	32.387240	35.909612	9.400847
563	24	3	0.060000	33.436294	34.516154	8.969697
564	24	3	0.060000	33.295203	36.101526	7.053276
565	24	3	0.060000	31.503760	36.072961	7.138013
566	24	3	0.060000	32.122123	34.672208	5.296440
567	24	3	0.060000	31.541993	33.581097	6.598681
568	24	3	0.060000	33.902841	33.048854	7.221122
569	24	3	0.060000	34.512293	34.212041	5.981017
570	24	3	0.060000	32.845401	31.656691	5.440979
571	24	3	0.060000	33.333627	32.851348	4.196838
572	24	3	0.060000	35.770761	32.445277	4.767884
573	24	3	0.060000	34.906271	31.044702	4.063399
574	24	3	0.060000	36.372637	30.335700	5.909670