
variable        infile index octanol_ua.data   # The name of the (edited) data file

#>>>>>> Simulation settings <<<<<<<

units		 real		#angstroms = length -
atom_style	 full		#How the atoms are defined in the input data file
boundary        p p p           #periodic box in x, y and z
pair_style	 lj/cut/coul/long 14.0    #'lj/cut/coul/long 12.0' for your ethanol simulation
pair_modify     tail yes            #Tail corrections
pair_modify     mix arithmetic      #Lorentz-Berthelot pair interactions between dissimilar atom

# The settings below are additional settings you must add for your ethanol simulation as already detailed in your example NPT LAMMPS script in the tutorial
# For your ethanol homework, change/edit the pair_style line as advised above and uncomment the extra settings below and you should be good to go for this section.

special_bonds   lj/coul 0.0 0.0 0.5
kspace_style    ewald 0.0001
bond_style      harmonic
angle_style     harmonic
dihedral_style  opls


# >>> Using the variable command in LAMMPS to define inputs/settings for the simulation <<<<<<

variable   simulationTemp  index 293     #Simulation temperature
variable   simulationPress equal 0.987	#Simulation pressure

# Output files frequencies
variable        dumpfreq   index 1000          #Output frequency of dump information to dump
variable        thermofreq index 1000          #Output frequency of property information to log
variable        printfreq  index 1000          #Output frequency of information to be printed
variable        restartfreq index 1000000      #Output frequency of restart files


# Simulation run times (equilibration and production)
variable        NVT_equib  index 1000000       # Equilibration run length (in timesteps)
variable        NVT_prod   index 3000000       # Simulation run length  (in timesteps)


# Defining properties to output
# The first expression after the 'variable' command is a user defined name for the variable, it can be anything
# The expression after the 'equal' keyword are LAMMPS special/reserved terms for those property

variable    step        equal step
variable    density     equal density
variable    temp        equal temp
variable    press       equal press
variable    ke          equal ke
variable    pe          equal pe
variable    etotal      equal etotal
variable    enthalpy    equal enthalpy


# >>>>>>>>>>> Reading data, Neighbor list settings, energy minimization, assigning initial velocities & specifying thermodynamic property output style to log files <<<<<<<<<

read_data	${infile}
read_data	octanol_ua.data
  orthogonal box = (0 0 0) to (40 40 40)
  3 by 4 by 4 MPI processor grid
  reading atoms ...
  2000 atoms
  scanning bonds ...
  1 = max bonds/atom
  scanning angles ...
  1 = max angles/atom
  scanning dihedrals ...
  1 = max dihedrals/atom
  reading bonds ...
  1800 bonds
  reading angles ...
  1600 angles
  reading dihedrals ...
  1400 dihedrals
  2 = max # of 1-2 neighbors
  2 = max # of 1-3 neighbors
  4 = max # of 1-4 neighbors
  6 = max # of special neighbors
  special bonds CPU = 0.0208541 secs
  read_data CPU = 0.041725 secs
neighbor        1.0 bin
neigh_modify    delay 0 every 1 check yes page 1000000 one 20000
timestep        1.0

minimize        1e-4 1e-6 10000 100000        #Energy minimize before creating velocities
Ewald initialization ...
  using 12-bit tables for long-range coulomb (src/kspace.cpp:332)
  G vector (1/distance) = 0.147428
  estimated absolute RMS force accuracy = 0.041374
  estimated relative force accuracy = 0.000124597
  KSpace vectors: actual max1d max3d = 128 4 364
                  kxmax kymax kzmax  = 4 4 4
Neighbor list info ...
  update every 1 steps, delay 0 steps, check yes
  max neighbors/atom: 20000, page size: 1000000
  master list distance cutoff = 15
  ghost atom cutoff = 15
  binsize = 7.5, bins = 6 6 6
  1 neighbor lists, perpetual/occasional/extra = 1 0 0
  (1) pair lj/cut/coul/long, perpetual
      attributes: half, newton on
      pair build: half/bin/newton
      stencil: half/bin/3d/newton
      bin: standard
Per MPI rank memory allocation (min/avg/max) = 18.73 | 18.85 | 19.24 Mbytes
Step Temp E_pair E_mol TotEng Press 
       0            0    278272.25    45807.952     324080.2    1091500.2 
     519            0   -2759.2838    366.72189   -2392.5619    -653.1094 
Loop time of 2.27044 on 48 procs for 519 steps with 2000 atoms

40.7% CPU use with 48 MPI tasks x 1 OpenMP threads

Minimization stats:
  Stopping criterion = energy tolerance
  Energy initial, next-to-last, final = 
         324080.203868      -2392.3711054     -2392.56188381
  Force two-norm initial, final = 76473.1 25.3948
  Force max component initial, final = 6066.45 5.47673
  Final line search alpha, max atom move = 0.0145911 0.0799117
  Iterations, force evaluations = 519 954

MPI task timing breakdown:
Section |  min time  |  avg time  |  max time  |%varavg| %total
---------------------------------------------------------------
Pair    | 0.057495   | 0.32441    | 0.60176    |  28.0 | 14.29
Bond    | 0.0035856  | 0.011312   | 0.017481   |   3.5 |  0.50
Kspace  | 0.27633    | 0.61583    | 0.91228    |  20.7 | 27.12
Neigh   | 0.038895   | 0.043196   | 0.046692   |   1.3 |  1.90
Comm    | 0.60167    | 0.71404    | 0.88117    |   7.5 | 31.45
Output  | 0          | 0          | 0          |   0.0 |  0.00
Modify  | 0          | 0          | 0          |   0.0 |  0.00
Other   |            | 0.5617     |            |       | 24.74

Nlocal:    41.6667 ave 67 max 13 min
Histogram: 3 5 3 4 6 5 5 8 8 1
Nghost:    2115.67 ave 2186 max 2016 min
Histogram: 13 2 1 0 0 0 1 10 8 13
Neighs:    9780.23 ave 16722 max 1938 min
Histogram: 4 5 4 5 3 5 3 7 9 3

Total # of neighbors = 469451
Ave neighs/atom = 234.726
Ave special neighs/atom = 4.8
Neighbor list builds = 47
Dangerous builds = 0
#velocity	all create ${simulationTemp} 886874 mom yes rot yes dist gaussian

velocity        all create  ${simulationTemp} 317879265 units box
velocity        all create  293 317879265 units box
velocity        all zero linear units box

# The 'velocity' command line above assigns initial velocities to the atoms in our data file, see the LAMMPS 'velocity' command
# The number '886874' is the seed number which helps LAMMPS to consistently assign the same randomized velocities for the same simulation with the same seed number
# Changing that seed number for your simulation of a given system is one easy way to run an 'independent' simulation of the same system as taught in class
# You will need to do this for your homework

thermo_style    custom step vol temp press ke pe etotal enthalpy evdwl ecoul epair ebond eangle edihed eimp emol elong etail lx ly lz xy xz yz density
thermo          ${thermofreq}
thermo          1000

fix npt_density all npt temp ${simulationTemp} ${simulationTemp} 100 iso ${simulationPress} ${simulationPress} 1000
fix npt_density all npt temp 293 ${simulationTemp} 100 iso ${simulationPress} ${simulationPress} 1000
fix npt_density all npt temp 293 293 100 iso ${simulationPress} ${simulationPress} 1000
fix npt_density all npt temp 293 293 100 iso 0.987 ${simulationPress} 1000
fix npt_density all npt temp 293 293 100 iso 0.987 0.987 1000

run 50000
Ewald initialization ...
  using 12-bit tables for long-range coulomb (src/kspace.cpp:332)
  G vector (1/distance) = 0.147428
  estimated absolute RMS force accuracy = 0.041374
  estimated relative force accuracy = 0.000124597
  KSpace vectors: actual max1d max3d = 128 4 364
                  kxmax kymax kzmax  = 4 4 4
Per MPI rank memory allocation (min/avg/max) = 17.6 | 17.76 | 18.11 Mbytes
Step Volume Temp Press KinEng PotEng TotEng Enthalpy E_vdwl E_coul E_pair E_bond E_angle E_dihed E_impro E_mol E_long E_tail Lx Ly Lz Xy Xz Yz Density 
     519        64000          293    593.89388    1745.8813   -2392.5619   -646.68057   -92.355258   -1771.8765    3145.3273   -2759.2838    23.571376    41.518217     301.6323            0    366.72189   -4132.7346   -52.673181           40           40           40            0            0            0   0.67579459 
    1000    66856.996    259.92372   -52.042087    1548.7917   -969.62448    579.16724    528.42408   -1580.4912    3269.1577   -2442.4911    470.69285    410.01311    592.16064            0    1472.8666   -4131.1576   -50.422301    40.586564    40.586564    40.586564            0            0            0   0.64691591 
    2000    66275.949    296.36418    297.11418    1765.9273   -879.50996    886.41731     1173.598   -1462.2793    3115.0168   -2477.2245    504.00166    432.16431    661.54851            0    1597.7145    -4129.962   -50.864358    40.468644    40.468644    40.468644            0            0            0   0.65258748 
    3000    63738.969    297.54782    233.03154    1772.9801    -924.3094    848.67075    1065.2893   -1482.4743    3031.9912   -2583.2496    525.74661    463.66416     669.5294            0    1658.9402   -4132.7665   -52.888894    39.945544    39.945544    39.945544            0            0            0   0.67856219 
    4000    61260.027    290.40641    103.89704    1730.4271   -1026.6371    703.78998    796.61312   -1549.3908    3046.4237   -2631.8881    495.60123    457.91402    651.73583            0    1605.2511    -4128.921   -55.029091    39.420827    39.420827    39.420827            0            0            0   0.70602081 
    5000    58703.845    295.54401   -842.51595    1761.0402   -1098.7042    662.33592   -58.971783   -1571.1664    2951.5971   -2749.6115    500.92554      475.294    674.68768            0    1650.9072   -4130.0421    -57.42526    38.864718    38.864718    38.864718            0            0            0   0.73676356 
    6000    57095.725    294.16885   -152.69789    1752.8461   -1200.1575     552.6886    425.53972    -1602.571    2874.3407   -2857.7905    491.10354    528.21576    638.31374            0     1657.633   -4129.5603   -59.042662    38.506543    38.506543    38.506543            0            0            0   0.75751476 
    7000    56805.469    291.46029   -506.74717    1736.7067   -1223.2589    513.44778    93.633337   -1597.3939    2851.0731   -2876.4442    514.40261    478.92915    659.85346            0    1653.1852   -4130.1234   -59.344349    38.441181    38.441181    38.441181            0            0            0   0.76138539 
    8000    56796.433    296.15567    676.88687    1764.6848   -1298.8849    465.79987    1026.4773   -1584.0291    2857.1872   -2858.7617    460.83053    469.94873    629.09752            0    1559.8768   -4131.9198   -59.353791    38.439142    38.439142    38.439142            0            0            0   0.76150653 
    9000    56196.958    297.60044   -62.173015    1773.2936    -1274.973    498.32069    447.36525    -1592.193    2790.0834   -2930.3976    480.31836    507.68228    667.42402            0    1655.4247    -4128.288   -59.986941    38.303424    38.303424    38.303424            0            0            0   0.76962981 
   10000    56100.925    292.50819    389.20951    1742.9508    -1341.068    401.88277    720.32405   -1602.5895    2767.3705   -2963.9239    476.51631    489.24679    657.09279            0    1622.8559   -4128.7048   -60.089625    38.281594    38.281594    38.281594            0            0            0   0.77094725 
   11000    54795.876    300.47772     710.3791    1790.4383   -1392.3847    398.05357     965.7471    -1620.897    2723.8341   -3029.2047    492.46884    495.46039    648.89076            0      1636.82   -4132.1418   -61.520754    37.982419    37.982419    37.982419            0            0            0   0.78930856 
   12000    55272.632    289.67357   -766.76037    1726.0603   -1478.1445    247.91581   -370.16562   -1605.1676     2670.912   -3065.5596    474.09551    484.37973    628.93984            0    1587.4151   -4131.3039   -60.990104    38.092258    38.092258    38.092258            0            0            0   0.78250035 
   13000    55981.131    288.25402   -15.608067    1717.6017    -1395.095    322.50676    309.76391     -1609.46    2725.6226   -3014.2707    483.65526    486.11166    649.40883            0    1619.1757   -4130.4333   -60.218211    38.254326    38.254326    38.254326            0            0            0     0.772597 
   14000    55993.431    290.43385   -368.47959    1730.5906   -1454.1707    276.41983   -24.483092   -1577.0212    2636.3854   -3071.2497    488.90502    493.39853    634.77539            0    1617.0789    -4130.614   -60.204984    38.257128    38.257128    38.257128            0            0            0   0.77242729 
   15000    54967.664    296.02669   -474.62629    1763.9163   -1479.2649     284.6514   -95.831335   -1674.4376    2715.8725   -3088.7076    482.98321    472.53441    653.92511            0    1609.4427   -4130.1425   -61.328486     38.02207     38.02207     38.02207            0            0            0   0.78684178 
   16000    54120.463    300.44438   -1152.2858    1790.2397   -1567.7075    222.53216   -686.95721   -1683.8592     2677.933   -3136.5752    468.19001    474.06073    626.61694            0    1568.8677    -4130.649    -62.28852    37.825717    37.825717    37.825717            0            0            0   0.79915897 
   17000    54352.632    288.81858    514.32119    1720.9658   -1401.3684    319.59737    727.28814   -1652.5864    2726.0958    -3058.998    500.95347    502.85848    653.81767            0    1657.6296   -4132.5074   -62.022453    37.879729    37.879729    37.879729            0            0            0   0.79574535 
   18000    54566.408    285.42286    177.87348    1700.7319    -1481.577    219.15483    360.70568   -1621.7867    2613.0856   -3140.4205     508.8446    500.39909    649.59974            0    1658.8434   -4131.7194   -61.779467    37.929326    37.929326    37.929326            0            0            0   0.79262785 
   19000    54283.151    305.38028   -747.24342    1819.6509   -1462.2407    357.41024   -234.15554   -1653.8495    2654.2458    -3132.069    504.43904    509.41194    655.97734            0    1669.8283   -4132.4653    -62.10184    37.863581    37.863581    37.863581            0            0            0   0.79676387 
   20000    54488.173     299.1428   -231.55096    1782.4841   -1613.1185    169.36555   -14.637374   -1666.5924    2649.1078        -3149    486.75188    451.44529    597.68431            0    1535.8815   -4131.5153   -61.868171     37.91119     37.91119     37.91119            0            0            0   0.79376591 
   21000    54594.279    290.50541    554.02013    1731.0169   -1489.2104    241.80654    682.91824   -1676.5449    2665.6657   -3142.2393    499.70294    494.40506    658.92094            0    1653.0289   -4131.3602   -61.747927    37.935782    37.935782    37.935782            0            0            0   0.79222319 
   22000    54606.698    292.09703    110.31447    1740.5008   -1498.4049    242.09589    329.94842   -1658.8709    2645.1524   -3145.1832    500.13719    494.91286    651.72822            0    1646.7783   -4131.4647   -61.733884    37.938659    37.938659    37.938659            0            0            0   0.79204301 
   23000     54621.84    292.14862    252.54329    1740.8082    -1525.735    215.07325    416.25012   -1642.5644    2651.5379   -3122.4916    482.49404    480.74281    633.51972            0    1596.7566    -4131.465   -61.716771    37.942165    37.942165    37.942165            0            0            0   0.79182345 
   24000    53433.931    280.75095    218.09597    1672.8936   -1618.3231    54.570483    224.52811   -1741.1526    2675.1455   -3196.5582    471.76777    467.59718    638.87016            0    1578.2351   -4130.5511   -63.088819    37.665093    37.665093    37.665093            0            0            0   0.80942678 
   25000    54003.087    289.43426   -592.41891    1724.6343    -1508.272    216.36234   -250.21474   -1627.8773    2561.4588   -3196.9324     533.9958    489.95124     664.7134            0    1688.6604    -4130.514   -62.423905    37.798352    37.798352    37.798352            0            0            0   0.80089595 
   26000    53194.648    289.46957    -361.6851    1724.8448   -1589.2049    135.63985    -144.9516   -1730.3394    2623.0615   -3238.2228    513.47004     482.7456    652.80226            0    1649.0179   -4130.9449   -63.372608    37.608786    37.608786    37.608786            0            0            0   0.81306777 
   27000    53657.324      286.113   -1198.5866    1704.8442   -1622.6497    82.194509   -855.74391   -1698.9019    2631.2247   -3197.0663    498.81688    485.65037    589.94933            0    1574.4166   -4129.3891    -62.82616    37.717509    37.717509    37.717509            0            0            0   0.80605686 
   28000    54420.475    295.70971   -528.91658    1762.0275     -1601.38    160.64746   -259.13608   -1654.8588     2582.283   -3201.8686    500.61991    504.40646    595.46223            0    1600.4886   -4129.2927   -61.945134    37.895483    37.895483    37.895483            0            0            0   0.79475334 
   29000    53537.267    292.53679    547.50007    1743.1212   -1606.0398    137.08142    564.56188   -1684.6766    2599.2867   -3215.2624    512.16166    488.82811    608.23291            0    1609.2227   -4129.8726   -62.967046    37.689357    37.689357    37.689357            0            0            0   0.80786443 
   30000    52853.742    287.42901    809.75468    1712.6858   -1653.8811    58.804623     682.9778   -1678.0641    2570.9872   -3239.6909    500.55356    475.08975    610.16648            0    1585.8098   -4132.6141    -63.78136    37.528273    37.528273    37.528273            0            0            0   0.81831205 
   31000    53117.346     283.6387   -409.80881    1690.1007   -1633.9352    56.165465   -261.29785   -1704.7388    2564.3813   -3271.7777    515.50064    513.60342     608.7384            0    1637.8425   -4131.4202   -63.464835    37.590559    37.590559    37.590559            0            0            0   0.81425104 
   32000    53247.477    297.67373    14.252636    1773.7304   -1570.6169    203.11353    214.18155   -1683.9736    2558.2673   -3257.6557    547.92607      500.408    638.70475            0    1687.0388   -4131.9494   -63.309734    37.621232    37.621232    37.621232            0            0            0    0.8122611 
   33000    53495.877    292.99655   -69.155222    1745.8607   -1640.6311    105.22966    51.275962   -1706.8219    2572.1776   -3266.8949    531.08533    499.56541    595.61307            0    1626.2638   -4132.2506   -63.015765    37.679642    37.679642    37.679642            0            0            0   0.80848949 
   34000     52946.29    296.83958    55.386197      1768.76   -1684.8769    83.883154    126.65057   -1750.0182    2616.0499   -3266.4427    511.86807    472.37695    597.32082            0    1581.5658   -4132.4744   -63.669873    37.550165    37.550165    37.550165            0            0            0   0.81688167 
   35000    53658.196    288.24054    747.76333    1717.5214   -1562.9601     154.5613    739.72331   -1660.5149    2599.4597   -3193.4659    532.92105    477.02376    620.56094            0    1630.5057   -4132.4108   -62.825139    37.717713    37.717713    37.717713            0            0            0   0.80604377 
   36000    52659.618    287.28595    405.30953    1711.8333   -1644.6483     67.18504    378.45729    -1754.082    2626.3454   -3261.0786    525.31708    480.21358    610.89964            0    1616.4303    -4133.342   -64.016483    37.482272    37.482272    37.482272            0            0            0   0.82132867 
   37000    52791.854    302.99694    1270.3763    1805.4495   -1668.6379    136.81162    1114.8935   -1676.0537    2537.5418   -3269.5291    524.27235     472.5982    604.02067            0    1600.8912   -4131.0172   -63.856132     37.51362     37.51362     37.51362            0            0            0   0.81927136 
   38000     52423.58    293.09547   -1263.9911    1746.4502   -1666.0636     80.38661   -885.99036   -1761.9812    2614.4072    -3280.831    533.68641    481.69112    599.38993            0    1614.7675    -4133.257   -64.304719    37.426185    37.426185    37.426185            0            0            0   0.82502672 
   39000    53200.842    290.90802     -182.643     1733.416   -1607.6765    125.73949   -15.969506    -1732.663    2598.4703   -3267.7447    557.20556    495.45003    607.41261            0    1660.0682    -4133.552    -63.36523    37.610246    37.610246    37.610246            0            0            0   0.81297311 
   40000    53499.462    294.68996   -185.42604    1755.9512   -1670.1272    85.823991   -58.851852   -1729.6739    2579.0302   -3284.3066    539.19801    473.62539    601.35606            0    1614.1795    -4133.663   -63.011541    37.680484    37.680484    37.680484            0            0            0   0.80843531 
   41000     53526.14    303.81732    242.58377    1810.3378   -1633.7096    176.62827    365.99494   -1695.5959    2563.8779   -3264.0051    545.35268    482.37039    602.57244            0    1630.2955   -4132.2871   -62.980136    37.686746    37.686746    37.686746            0            0            0   0.80803237 
   42000    53146.894    298.90818   -686.90744     1781.086   -1658.2191    122.86694   -409.55016   -1680.8889    2526.5582   -3286.0747    532.76943    489.15204    605.93417            0    1627.8556    -4131.744   -63.429551    37.597528    37.597528    37.597528            0            0            0   0.81379834 
   43000    53155.422    298.93035   -172.98605    1781.2181   -1624.2083    157.00984    22.908059   -1697.5579    2586.8203   -3243.0012    559.17297     466.3309    593.28911            0     1618.793   -4132.2637   -63.419374    37.599539    37.599539    37.599539            0            0            0   0.81366778 
   44000     52457.87    294.98138   -336.35873    1757.6876   -1707.0392    50.648445   -206.68086   -1746.4946    2597.8021   -3280.8315     519.4302    471.33032    583.03176            0    1573.7923   -4132.1389   -64.262685    37.434343    37.434343    37.434343            0            0            0   0.82448742 
   45000    53362.584    294.37825   -452.17462    1754.0938   -1658.8095    95.284294   -256.61543   -1698.4706    2539.4067   -3290.9284    531.63128    487.61319    612.87437            0    1632.1188   -4131.8644   -63.173169    37.648321    37.648321    37.648321            0            0            0   0.81050898 
   46000      53404.5    301.90695    417.42627    1798.9546   -1634.1201     164.8345    489.94689   -1714.8997    2591.5343   -3256.0879    543.16287    480.33297    598.47197            0    1621.9678   -4132.7226   -63.123586    37.658176    37.658176    37.658176            0            0            0   0.80987283 
   47000     52563.97    295.58276    237.67033     1761.271   -1686.2412    75.029866    257.22594   -1741.7615    2592.6257    -3281.608    511.55538    523.43439    560.37709            0    1595.3669   -4132.4722   -64.132971    37.459564    37.459564    37.459564            0            0            0    0.8228232 
   48000    52342.328     292.9398   -84.532291    1745.5226   -1716.1599    29.362667   -35.165832    -1766.846    2575.7962   -3324.5018    542.71714    480.71608    584.90866            0    1608.3419    -4133.452   -64.404541    37.406839    37.406839    37.406839            0            0            0   0.82630742 
   49000    52693.509    289.58428   -424.27223    1725.5283   -1690.9862    34.542027   -291.50302   -1713.2317    2544.4956   -3301.5124    520.36535    487.87856    602.28228            0    1610.5262   -4132.7763   -63.975311    37.490311    37.490311    37.490311            0            0            0   0.82080042 
   50000    52850.768    292.94086    569.27117    1745.5289    -1698.043    47.485939    486.26549   -1712.7905    2495.9988   -3350.4448    552.18408    476.83037    623.38734            0    1652.4018    -4133.653    -63.78495    37.527569    37.527569    37.527569            0            0            0    0.8183581 
   50519    52573.667     285.7815    1096.8324    1702.8689   -1682.7341    20.134733    861.11235   -1738.0426    2591.4948   -3279.1208     554.4938    469.15493    572.73791            0    1596.3866   -4132.5731   -64.121142    37.461868    37.461868    37.461868            0            0            0   0.82267143 
Loop time of 103.671 on 48 procs for 50000 steps with 2000 atoms

Performance: 41.670 ns/day, 0.576 hours/ns, 482.295 timesteps/s
41.5% CPU use with 48 MPI tasks x 1 OpenMP threads

MPI task timing breakdown:
Section |  min time  |  avg time  |  max time  |%varavg| %total
---------------------------------------------------------------
Pair    | 11.465     | 13.871     | 16.563     |  37.2 | 13.38
Bond    | 0.5179     | 0.63813    | 0.76933    |   6.6 |  0.62
Kspace  | 13.877     | 19.655     | 23.725     |  52.6 | 18.96
Neigh   | 2.9185     | 3.5001     | 3.9911     |  19.7 |  3.38
Comm    | 31.854     | 38.01      | 46.95      |  56.3 | 36.66
Output  | 0.061013   | 0.062038   | 0.069803   |   0.5 |  0.06
Modify  | 18.063     | 22.3       | 26.374     |  41.2 | 21.51
Other   |            | 5.635      |            |       |  5.44

Nlocal:    41.6667 ave 54 max 29 min
Histogram: 2 2 6 8 10 2 3 7 4 4
Nghost:    2471.58 ave 2502 max 2439 min
Histogram: 1 1 6 5 12 5 8 5 3 2
Neighs:    11196.9 ave 16074 max 7294 min
Histogram: 1 4 9 10 5 8 5 3 1 2

Total # of neighbors = 537453
Ave neighs/atom = 268.726
Ave special neighs/atom = 4.8
Neighbor list builds = 4355
Dangerous builds = 0

unfix npt_density

fix reshape_box all deform 1 x final 0.0 37.4495 y final 0.0 37.4495 z final 0.0 37.4495 units box

run 100000
Ewald initialization ...
  using 12-bit tables for long-range coulomb (src/kspace.cpp:332)
  G vector (1/distance) = 0.14912
  estimated absolute RMS force accuracy = 0.0367984
  estimated relative force accuracy = 0.000110817
  KSpace vectors: actual max1d max3d = 128 4 364
                  kxmax kymax kzmax  = 4 4 4
Per MPI rank memory allocation (min/avg/max) = 17.62 | 17.79 | 18.12 Mbytes
Step Volume Temp Press KinEng PotEng TotEng Enthalpy E_vdwl E_coul E_pair E_bond E_angle E_dihed E_impro E_mol E_long E_tail Lx Ly Lz Xy Xz Yz Density 
   50519    52573.667     285.7815    1096.9001    1702.8689   -1682.7688    20.100043    861.12958   -1738.0426    2638.7137   -3279.1555     554.4938    469.15493    572.73791            0    1596.3866   -4179.8266   -64.121142    37.461868    37.461868    37.461868            0            0            0   0.82267143 
   51000    52573.417     285.7815    1100.2897    1702.8689   -1682.7706    20.098303    863.72276   -1738.0353    2638.7113   -3279.1507    554.48725    469.15493    572.73791            0    1596.3801   -4179.8267   -64.121447    37.461808    37.461808    37.461808            0            0            0   0.82267535 
   52000    52572.896     285.7815    1107.3536    1702.8689   -1682.7732    20.095627    869.12771   -1738.0193    2638.7063   -3279.1397    554.47364    469.15493    572.73791            0    1596.3665   -4179.8267   -64.122082    37.461684    37.461684    37.461684            0            0            0    0.8226835 
   53000    52572.376     285.7815    1114.4838    1702.8689   -1682.7612    20.107622    874.59812   -1738.0028    2638.7154   -3279.1142    554.46007    469.15493    572.73791            0    1596.3529   -4179.8268   -64.122717    37.461561    37.461561    37.461561            0            0            0   0.82269164 
   54000    52571.855     285.7815    1121.7148    1702.8689   -1682.7277    20.141125    880.16722   -1737.9873     2638.747   -3279.0671    554.44656    469.15493    572.73791            0    1596.3394   -4179.8268   -64.123353    37.461437    37.461437    37.461437            0            0            0   0.82269979 
   55000    52571.334     285.7815    1128.7796    1702.8689     -1682.73    20.138841      885.573   -1737.9711     2638.742    -3279.056     554.4331    469.15493    572.73791            0    1596.3259   -4179.8269   -64.123988    37.461313    37.461313    37.461313            0            0            0   0.82270794 
   56000    52570.813     285.7815    1135.8436    1702.8689   -1682.7326    20.136276    890.97777   -1737.9552     2638.737   -3279.0451    554.41969    469.15493    572.73791            0    1596.3125   -4179.8269   -64.124623     37.46119     37.46119     37.46119            0            0            0   0.82271609 
   57000    52570.293     285.7815    1142.9067    1702.8689   -1682.7355    20.133327    896.38138   -1737.9397     2638.732   -3279.0347    554.40634    469.15493    572.73791            0    1596.2992    -4179.827   -64.125258    37.461066    37.461066    37.461066            0            0            0   0.82272424 
   58000    52569.772     285.7815     1149.908    1702.8689   -1682.7516    20.117226    901.72429   -1737.9235     2638.713   -3279.0375    554.39303    469.15493    572.73791            0    1596.2859    -4179.827   -64.125893    37.460942    37.460942    37.460942            0            0            0   0.82273239 
   59000    52569.251     285.7815     1156.973    1702.8689   -1682.7538    20.115088    907.13001   -1737.9074     2638.708   -3279.0264    554.37977    469.15493    572.73791            0    1596.2726   -4179.8271   -64.126528    37.460819    37.460819    37.460819            0            0            0   0.82274053 
   60000    52568.731     285.7815    1164.0608    1702.8689   -1682.7512    20.117652    912.55769   -1737.8918    2638.7083   -3279.0106    554.36657    469.15493    572.73791            0    1596.2594   -4179.8271   -64.127163    37.460695    37.460695    37.460695            0            0            0   0.82274868 
   61000     52568.21     285.7815    1171.1249    1702.8689   -1682.7538    20.115108    917.96199   -1737.8761    2638.7032        -3279    554.35342    469.15493    572.73791            0    1596.2463   -4179.8272   -64.127798    37.460571    37.460571    37.460571            0            0            0   0.82275683 
   62000    52567.689     285.7815    1178.2529    1702.8689   -1682.7423    20.126607    923.42931   -1737.8603    2638.7121   -3278.9754    554.34031    469.15493    572.73791            0    1596.2332   -4179.8272   -64.128434    37.460448    37.460448    37.460448            0            0            0   0.82276498 
   63000    52567.169     285.7815    1185.3178    1702.8689   -1682.7445     20.12441    928.83438   -1737.8444    2638.7071   -3278.9646    554.32726    469.15493    572.73791            0    1596.2201   -4179.8273   -64.129069    37.460324    37.460324    37.460324            0            0            0   0.82277313 
   64000    52566.648     285.7815    1192.4219    1702.8689   -1682.7382    20.130706    934.27789   -1737.8286    2638.7107   -3278.9453    554.31426    469.15493    572.73791            0    1596.2071   -4179.8273   -64.129704      37.4602      37.4602      37.4602            0            0            0   0.82278128 
   65000    52566.128     285.7815    1199.5509    1702.8689   -1682.7265    20.142327    939.74566   -1737.8131    2638.7198   -3278.9207    554.30132    469.15493    572.73791            0    1596.1942   -4179.8274   -64.130339    37.460077    37.460077    37.460077            0            0            0   0.82278943 
   66000    52565.607     285.7815    1206.6166    1702.8689   -1682.7284    20.140452    945.15135    -1737.797    2638.7147   -3278.9097    554.28842    469.15493    572.73791            0    1596.1813   -4179.8274   -64.130974    37.459953    37.459953    37.459953            0            0            0   0.82279758 
   67000    52565.086     285.7815    1213.6178    1702.8689   -1682.7444    20.124464    950.49339   -1737.7812    2638.6959   -3278.9128    554.27557    469.15493    572.73791            0    1596.1684   -4179.8275   -64.131609    37.459829    37.459829    37.459829            0            0            0   0.82280573 
   68000    52564.566     285.7815    1220.6572    1702.8689   -1682.7523    20.116559    955.87272    -1737.766    2638.6856   -3278.9079    554.26278    469.15493    572.73791            0    1596.1556   -4179.8275   -64.132245    37.459706    37.459706    37.459706            0            0            0   0.82281388 
   69000    52564.045     285.7815    1227.6186    1702.8689   -1682.7768    20.092056    961.17547   -1737.7499    2638.6578   -3278.9197    554.25004    469.15493    572.73791            0    1596.1429   -4179.8275    -64.13288    37.459582    37.459582    37.459582            0            0            0   0.82282203 
   70000    52563.524     285.7815    1234.6857    1702.8689    -1682.778    20.090825    966.58249   -1737.7334    2638.6528   -3278.9082    554.23734    469.15493    572.73791            0    1596.1302   -4179.8276   -64.133515    37.459458    37.459458    37.459458            0            0            0   0.82283018 
   71000    52563.004     285.7815    1241.7511    1702.8689     -1682.78    20.088906    971.98733   -1737.7176    2638.6478   -3278.8975     554.2247    469.15493    572.73791            0    1596.1175   -4179.8276    -64.13415    37.459335    37.459335    37.459335            0            0            0   0.82283833 
   72000    52562.483     285.7815    1248.8178    1702.8689   -1682.7814    20.087515    977.39367   -1737.7013    2638.6427   -3278.8863    554.21211    469.15493    572.73791            0     1596.105   -4179.8277   -64.134786    37.459211    37.459211    37.459211            0            0            0   0.82284648 
   73000    52561.962     285.7815    1255.8844    1702.8689   -1682.7828    20.086048    982.79966   -1737.6852    2638.6377   -3278.8752    554.19958    469.15493    572.73791            0    1596.0924   -4179.8277   -64.135421    37.459087    37.459087    37.459087            0            0            0   0.82285463 
   74000    52561.442     285.7815      1262.95    1702.8689   -1682.7846    20.084264    988.20456   -1737.6694    2638.6326   -3278.8645    554.18709    469.15493    572.73791            0    1596.0799   -4179.8278   -64.136056    37.458964    37.458964    37.458964            0            0            0   0.82286278 
   75000    52560.921     285.7815    1270.0172    1702.8689   -1682.7858    20.083108    993.61117    -1737.653    2638.6276   -3278.8533    554.17465    469.15493    572.73791            0    1596.0675   -4179.8278   -64.136691     37.45884     37.45884     37.45884            0            0            0   0.82287093 
   76000    52560.401     285.7815    1277.0185    1702.8689   -1682.8016    20.067257    998.95244   -1737.6376    2638.6088   -3278.8567    554.16227    469.15493    572.73791            0    1596.0551   -4179.8279   -64.137327    37.458716    37.458716    37.458716            0            0            0   0.82287908 
   77000     52559.88     285.7815    1284.0841    1702.8689   -1682.8034    20.065456    1004.3569    -1737.622    2638.6037   -3278.8462    554.14993    469.15493    572.73791            0    1596.0428   -4179.8279   -64.137962    37.458593    37.458593    37.458593            0            0            0   0.82288723 
   78000    52559.359     285.7815    1291.1895    1702.8689   -1682.7965     20.07238    1009.8006   -1737.6063    2638.6073    -3278.827    554.13765    469.15493    572.73791            0    1596.0305    -4179.828   -64.138597    37.458469    37.458469    37.458469            0            0            0   0.82289538 
   79000    52558.839     285.7815    1298.3603    1702.8689   -1682.7752    20.093639    1015.3086   -1737.5905     2638.625   -3278.7935    554.12542    469.15493    572.73791            0    1596.0183    -4179.828   -64.139232    37.458345    37.458345    37.458345            0            0            0   0.82290353 
   80000    52558.318     285.7815    1305.4505    1702.8689   -1682.7715    20.097333    1020.7371   -1737.5748    2638.6253   -3278.7776    554.11324    469.15493    572.73791            0    1596.0061   -4179.8281   -64.139868    37.458221    37.458221    37.458221            0            0            0   0.82291168 
   81000    52557.798     285.7815    1312.5168    1702.8689    -1682.773    20.095902    1026.1421   -1737.5591    2638.6203   -3278.7669    554.10111    469.15493    572.73791            0    1595.9939   -4179.8281   -64.140503    37.458098    37.458098    37.458098            0            0            0   0.82291983 
   82000    52557.277     285.7815    1319.5838    1702.8689   -1682.7742    20.094711    1031.5478   -1737.5431    2638.6152    -3278.756    554.08904    469.15493    572.73791            0    1595.9819   -4179.8282   -64.141138    37.457974    37.457974    37.457974            0            0            0   0.82292798 
   83000    52556.756     285.7815    1326.6521    1702.8689   -1682.7748    20.094037    1036.9548   -1737.5267    2638.6102   -3278.7447    554.07701    469.15493    572.73791            0    1595.9698   -4179.8282   -64.141774     37.45785     37.45785     37.45785            0            0            0   0.82293614 
   84000    52556.236     285.7815    1333.6795    1702.8689   -1682.7846     20.08426    1042.3213   -1737.5108    2638.5966   -3278.7425    554.06504    469.15493    572.73791            0    1595.9579   -4179.8283   -64.142409    37.457727    37.457727    37.457727            0            0            0   0.82294429 
   85000    52555.715     285.7815     1340.787    1702.8689   -1682.7768    20.092059    1047.7667   -1737.4946    2638.6001   -3278.7228    554.05311    469.15493    572.73791            0    1595.9459   -4179.8283   -64.143044    37.457603    37.457603    37.457603            0            0            0   0.82295244 
   86000    52555.195     285.7815     1347.856    1702.8689   -1682.7772    20.091698    1053.1743    -1737.478    2638.5952   -3278.7112    554.04124    469.15493    572.73791            0    1595.9341   -4179.8284    -64.14368    37.457479    37.457479    37.457479            0            0            0   0.82296059 
   87000    52554.674     285.7815     1354.924    1702.8689   -1682.7779    20.090937    1058.5806   -1737.4619    2638.5901   -3278.7002    554.02942    469.15493    572.73791            0    1595.9223   -4179.8284   -64.144315    37.457356    37.457356    37.457356            0            0            0   0.82296874 
   88000    52554.154     285.7815    1361.9927    1702.8689   -1682.7784    20.090479    1063.9876   -1737.4455    2638.5851   -3278.6889    554.01765    469.15493    572.73791            0    1595.9105   -4179.8285   -64.144951    37.457232    37.457232    37.457232            0            0            0   0.82297689 
   89000    52553.633     285.7815    1369.0851    1702.8689   -1682.7738    20.095089    1069.4178   -1737.4293    2638.5853   -3278.6725    554.00593    469.15493    572.73791            0    1595.8988   -4179.8285   -64.145586    37.457108    37.457108    37.457108            0            0            0   0.82298505 
   90000    52553.112     285.7815    1376.1529    1702.8689   -1682.7745    20.094325    1074.8237   -1737.4134    2638.5803   -3278.6616    553.99426    469.15493    572.73791            0    1595.8871   -4179.8286   -64.146221    37.456985    37.456985    37.456985            0            0            0    0.8229932 
   91000    52552.592     285.7815    1383.2611    1702.8689   -1682.7664    20.102515    1080.2693   -1737.3972     2638.584   -3278.6418    553.98265    469.15493    572.73791            0    1595.8755   -4179.8286   -64.146857    37.456861    37.456861    37.456861            0            0            0   0.82300135 
   92000    52552.071     285.7815    1390.3293    1702.8689    -1682.767    20.101867    1085.6754   -1737.3811    2638.5789   -3278.6309    553.97108    469.15493    572.73791            0    1595.8639   -4179.8287   -64.147492    37.456737    37.456737    37.456737            0            0            0    0.8230095 
   93000    52551.551     285.7815    1397.3976    1702.8689   -1682.7676    20.101293    1091.0814   -1737.3651    2638.5739     -3278.62    553.95957    469.15493    572.73791            0    1595.8524   -4179.8287   -64.148128    37.456614    37.456614    37.456614            0            0            0   0.82301765 
   94000     52551.03     285.7815    1404.4665    1702.8689   -1682.7679    20.100988    1096.4882   -1737.3489    2638.5689   -3278.6088     553.9481    469.15493    572.73791            0    1595.8409   -4179.8288   -64.148763     37.45649     37.45649     37.45649            0            0            0   0.82302581 
   95000     52550.51     285.7815     1411.535    1702.8689   -1682.7684    20.100507    1101.8943   -1737.3329    2638.5639   -3278.5979    553.93669    469.15493    572.73791            0    1595.8295   -4179.8288   -64.149398    37.456366    37.456366    37.456366            0            0            0   0.82303396 
   96000    52549.989     285.7815    1418.7723    1702.8689    -1682.732    20.136858    1107.4665   -1737.3168    2638.5955   -3278.5502    553.92533    469.15493    572.73791            0    1595.8182   -4179.8289   -64.150034    37.456243    37.456243    37.456243            0            0            0   0.82304211 
   97000    52549.469     285.7815    1425.8398    1702.8689   -1682.7328    20.136029    1112.8712   -1737.3013    2638.5905   -3278.5397    553.91402    469.15493    572.73791            0    1595.8069   -4179.8289   -64.150669    37.456119    37.456119    37.456119            0            0            0   0.82305027 
   98000    52548.948     285.7815     1432.804    1702.8689    -1682.756    20.112899    1118.1745   -1737.2852    2638.5626   -3278.5516    553.90277    469.15493    572.73791            0    1595.7956    -4179.829   -64.151305    37.455995    37.455995    37.455995            0            0            0   0.82305842 
   99000    52548.428     285.7815    1439.9125    1702.8689   -1682.7476    20.121265    1123.6197   -1737.2693    2638.5663    -3278.532    553.89156    469.15493    572.73791            0    1595.7844    -4179.829    -64.15194    37.455872    37.455872    37.455872            0            0            0   0.82306657 
  100000    52547.907     285.7815    1446.9817    1702.8689   -1682.7477    20.121127    1129.0261   -1737.2532    2638.5613    -3278.521     553.8804    469.15493    572.73791            0    1595.7732   -4179.8291   -64.152576    37.455748    37.455748    37.455748            0            0            0   0.82307472 
  101000    52547.386     285.7815    1453.9867    1702.8689   -1682.7619    20.106968    1134.3693   -1737.2373    2638.5424    -3278.524     553.8693    469.15493    572.73791            0    1595.7621   -4179.8291   -64.153211    37.455624    37.455624    37.455624            0            0            0   0.82308288 
  102000    52546.866     285.7815    1461.0555    1702.8689   -1682.7622    20.106674    1139.7751   -1737.2215    2638.5374   -3278.5133    553.85825    469.15493    572.73791            0    1595.7511   -4179.8292   -64.153847    37.455501    37.455501    37.455501            0            0            0   0.82309103 
  103000    52546.345     285.7815    1468.1249    1702.8689   -1682.7623    20.106611    1145.1815   -1737.2054    2638.5323   -3278.5023    553.84725    469.15493    572.73791            0    1595.7401   -4179.8292   -64.154482    37.455377    37.455377    37.455377            0            0            0   0.82309918 
  104000    52545.825     285.7815    1475.1927    1702.8689   -1682.7629    20.105987    1150.5859   -1737.1901    2638.5273    -3278.492     553.8363    469.15493    572.73791            0    1595.7291   -4179.8293   -64.155118    37.455253    37.455253    37.455253            0            0            0   0.82310734 
  105000    52545.304     285.7815    1482.2618    1702.8689   -1682.7631    20.105802    1155.9917   -1737.1743    2638.5223   -3278.4813     553.8254    469.15493    572.73791            0    1595.7182   -4179.8293   -64.155753     37.45513     37.45513     37.45513            0            0            0   0.82311549 
  106000    52544.784     285.7815     1489.329    1702.8689   -1682.7639    20.104954    1161.3953   -1737.1592    2638.5173   -3278.4713    553.81455    469.15493    572.73791            0    1595.7074   -4179.8294   -64.156389    37.455006    37.455006    37.455006            0            0            0   0.82312365 
  107000    52544.263     285.7815    1496.4386    1702.8689    -1682.755    20.113841     1166.841   -1737.1431    2638.5209   -3278.4516    553.80375    469.15493    572.73791            0    1595.6966   -4179.8294   -64.157024    37.454882    37.454882    37.454882            0            0            0    0.8231318 
  108000    52543.743     285.7815     1503.509    1702.8689   -1682.7546    20.114224     1172.248   -1737.1269    2638.5159   -3278.4405    553.79301    469.15493    572.73791            0    1595.6858   -4179.8295    -64.15766    37.454759    37.454759    37.454759            0            0            0   0.82313995 
  109000    52543.222     285.7815      1510.58    1702.8689    -1682.754    20.114877    1177.6558   -1737.1105    2638.5109   -3278.4291    553.78231    469.15493    572.73791            0    1595.6751   -4179.8295   -64.158295    37.454635    37.454635    37.454635            0            0            0   0.82314811 
  110000    52542.702     285.7815    1517.6499    1702.8689   -1682.7538    20.115096     1183.062   -1737.0945    2638.5058   -3278.4183    553.77167    469.15493    572.73791            0    1595.6645   -4179.8296   -64.158931    37.454511    37.454511    37.454511            0            0            0   0.82315626 
  111000    52542.181     285.7815    1524.7202    1702.8689   -1682.7534    20.115489    1188.4686   -1737.0785    2638.5009   -3278.4073    553.76108    469.15493    572.73791            0    1595.6539   -4179.8296   -64.159566    37.454388    37.454388    37.454388            0            0            0   0.82316442 
  112000    52541.661     285.7815    1531.7903    1702.8689   -1682.7531    20.115799     1193.875   -1737.0626    2638.4958   -3278.3964    553.75054    469.15493    572.73791            0    1595.6434   -4179.8297   -64.160202    37.454264    37.454264    37.454264            0            0            0   0.82317257 
  113000     52541.14     285.7815    1538.8604    1702.8689   -1682.7527    20.116163    1199.2813   -1737.0467    2638.4908   -3278.3856    553.74005    469.15493    572.73791            0    1595.6329   -4179.8297   -64.160838     37.45414     37.45414     37.45414            0            0            0   0.82318072 
  114000     52540.62     285.7815    1545.9305    1702.8689   -1682.7524    20.116453    1204.6873   -1737.0309    2638.4858   -3278.3749    553.72961    469.15493    572.73791            0    1595.6224   -4179.8298   -64.161473    37.454017    37.454017    37.454017            0            0            0   0.82318888 
  115000    52540.099     285.7815    1552.9386    1702.8689   -1682.7653    20.103593    1210.0326   -1737.0144    2638.4669   -3278.3773    553.71922    469.15493    572.73791            0    1595.6121   -4179.8298   -64.162109    37.453893    37.453893    37.453893            0            0            0   0.82319703 
  116000    52539.579     285.7815    1560.0081    1702.8689   -1682.7651    20.103752    1215.4379   -1736.9989    2638.4619   -3278.3668    553.70889    469.15493    572.73791            0    1595.6017   -4179.8299   -64.162744    37.453769    37.453769    37.453769            0            0            0   0.82320519 
  117000    52539.059     285.7815    1567.0801    1702.8689   -1682.7641    20.104814    1220.8459   -1736.9824    2638.4568   -3278.3555     553.6986    469.15493    572.73791            0    1595.5914   -4179.8299    -64.16338    37.453645    37.453645    37.453645            0            0            0   0.82321334 
  118000    52538.538     285.7815    1574.1908    1702.8689   -1682.7547    20.114174    1226.2917   -1736.9663    2638.4604   -3278.3359    553.68837    469.15493    572.73791            0    1595.5812     -4179.83   -64.164016    37.453522    37.453522    37.453522            0            0            0    0.8232215 
  119000    52538.018     285.7815    1581.2613    1702.8689   -1682.7541    20.114744    1231.6979   -1736.9506    2638.4554   -3278.3251    553.67819    469.15493    572.73791            0     1595.571     -4179.83   -64.164651    37.453398    37.453398    37.453398            0            0            0   0.82322965 
  120000    52537.497     285.7815    1588.3333    1702.8689    -1682.753     20.11588    1237.1056   -1736.9342    2638.4504   -3278.3139    553.66806    469.15493    572.73791            0    1595.5609   -4179.8301   -64.165287    37.453274    37.453274    37.453274            0            0            0   0.82323781 
  121000    52536.977     285.7815     1595.404    1702.8689   -1682.7524    20.116504    1242.5118   -1736.9184    2638.4453   -3278.3032    553.65798    469.15493    572.73791            0    1595.5508   -4179.8301   -64.165923    37.453151    37.453151    37.453151            0            0            0   0.82324596 
  122000    52536.456     285.7815    1602.4747    1702.8689   -1682.7517    20.117177    1247.9178   -1736.9027    2638.4404   -3278.2925    553.64795    469.15493    572.73791            0    1595.5408   -4179.8302   -64.166558    37.453027    37.453027    37.453027            0            0            0   0.82325412 
  123000    52535.936     285.7815    1609.5454    1702.8689   -1682.7511    20.117785    1253.3236    -1736.887    2638.4353   -3278.2819    553.63797    469.15493    572.73791            0    1595.5308   -4179.8302   -64.167194    37.452903    37.452903    37.452903            0            0            0   0.82326228 
  124000    52535.415     285.7815     1616.784    1702.8689    -1682.714    20.154893    1258.8946   -1736.8715    2638.4669   -3278.2349    553.62804    469.15493    572.73791            0    1595.5209   -4179.8303    -64.16783     37.45278     37.45278     37.45278            0            0            0   0.82327043 
  125000    52534.895     285.7815    1623.8551    1702.8689   -1682.7131    20.155785    1264.3009   -1736.8557     2638.462   -3278.2241    553.61817    469.15493    572.73791            0     1595.511   -4179.8303   -64.168465    37.452656    37.452656    37.452656            0            0            0   0.82327859 
  126000    52534.374     285.7815    1630.8621    1702.8689   -1682.7263     20.14259    1269.6438   -1736.8401     2638.443   -3278.2275    553.60835    469.15493    572.73791            0    1595.5012   -4179.8304   -64.169101    37.452532    37.452532    37.452532            0            0            0   0.82328674 
  127000    52533.854     285.7815    1637.9345    1702.8689   -1682.7249    20.143963    1275.0514   -1736.8239     2638.438   -3278.2163    553.59857    469.15493    572.73791            0    1595.4914   -4179.8304   -64.169737    37.452409    37.452409    37.452409            0            0            0    0.8232949 
  128000    52533.334     285.7815    1645.0046    1702.8689   -1682.7245    20.144421    1280.4561   -1736.8086     2638.433   -3278.2061    553.58885    469.15493    572.73791            0    1595.4817   -4179.8305   -64.170372    37.452285    37.452285    37.452285            0            0            0   0.82330306 
  129000    52532.813     285.7815    1652.0754    1702.8689   -1682.7237      20.1452    1285.8616   -1736.7931     2638.428   -3278.1957    553.57918    469.15493    572.73791            0     1595.472   -4179.8305   -64.171008    37.452161    37.452161    37.452161            0            0            0   0.82331121 
  130000    52532.293     285.7815     1659.147    1702.8689   -1682.7226    20.146228    1291.2678   -1736.7774    2638.4229    -3278.185    553.56956    469.15493    572.73791            0    1595.4624   -4179.8306   -64.171644    37.452038    37.452038    37.452038            0            0            0   0.82331937 
  131000    52531.772     285.7815    1666.3874    1702.8689   -1682.6847     20.18415    1296.8403   -1736.7615    2638.4545   -3278.1376       553.56    469.15493    572.73791            0    1595.4528   -4179.8306    -64.17228    37.451914    37.451914    37.451914            0            0            0   0.82332752 
  132000    52531.252     285.7815    1673.4602    1702.8689   -1682.6832    20.185677    1302.2477   -1736.7454    2638.4495   -3278.1265    553.55048    469.15493    572.73791            0    1595.4433   -4179.8307   -64.172915     37.45179     37.45179     37.45179            0            0            0   0.82333568 
  133000    52530.731     285.7815    1680.5344    1702.8689   -1682.6811    20.187813    1307.6567   -1736.7287    2638.4445   -3278.1149    553.54102    469.15493    572.73791            0    1595.4339   -4179.8307   -64.173551    37.451667    37.451667    37.451667            0            0            0   0.82334384 
  134000    52530.211     285.7815    1687.6077    1702.8689   -1682.6794    20.189518    1313.0645   -1736.7125    2638.4394   -3278.1038     553.5316    469.15493    572.73791            0    1595.4244   -4179.8308   -64.174187    37.451543    37.451543    37.451543            0            0            0   0.82335199 
  135000    52529.691     285.7815    1694.6811    1702.8689   -1682.6775    20.191356    1318.4724   -1736.6962    2638.4344   -3278.0926    553.52224    469.15493    572.73791            0    1595.4151   -4179.8308   -64.174823    37.451419    37.451419    37.451419            0            0            0   0.82336015 
  136000     52529.17     285.7815    1701.7557    1702.8689   -1682.6752    20.193628    1323.8815   -1736.6796    2638.4294    -3278.081    553.51293    469.15493    572.73791            0    1595.4058   -4179.8309   -64.175458    37.451296    37.451296    37.451296            0            0            0   0.82336831 
  137000     52528.65     285.7815    1708.8281    1702.8689   -1682.6738    20.195074    1329.2881   -1736.6638    2638.4244   -3278.0703    553.50367    469.15493    572.73791            0    1595.3965   -4179.8309   -64.176094    37.451172    37.451172    37.451172            0            0            0   0.82337647 
  138000    52528.129     285.7815    1715.9015    1702.8689   -1682.6719    20.196933    1334.6957   -1736.6476    2638.4194   -3278.0592    553.49446    469.15493    572.73791            0    1595.3873    -4179.831    -64.17673    37.451048    37.451048    37.451048            0            0            0   0.82338462 
  139000    52527.609     285.7815    1722.9108    1702.8689   -1682.6841    20.184773      1340.04   -1736.6317    2638.4005   -3278.0622     553.4853    469.15493    572.73791            0    1595.3781    -4179.831   -64.177366    37.450925    37.450925    37.450925            0            0            0   0.82339278 
  140000    52527.089     285.7815    1729.9848    1702.8689    -1682.682    20.186873    1345.4482   -1736.6154    2638.3954    -3278.051     553.4762    469.15493    572.73791            0     1595.369   -4179.8311   -64.178002    37.450801    37.450801    37.450801            0            0            0   0.82340094 
  141000    52526.568     285.7815    1737.0573    1702.8689   -1682.6805    20.188402    1350.8544   -1736.5997    2638.3904   -3278.0404    553.46714    469.15493    572.73791            0      1595.36   -4179.8311   -64.178637    37.450677    37.450677    37.450677            0            0            0   0.82340909 
  142000    52526.048     285.7815    1744.1547    1702.8689   -1682.6734    20.195487    1356.2852   -1736.5838    2638.3906   -3278.0244    553.45814    469.15493    572.73791            0     1595.351   -4179.8312   -64.179273    37.450554    37.450554    37.450554            0            0            0   0.82341725 
  143000    52525.528     285.7815    1751.1656    1702.8689   -1682.6849    20.183988     1361.631   -1736.5674    2638.3717   -3278.0269    553.44918    469.15493    572.73791            0     1595.342   -4179.8312   -64.179909     37.45043     37.45043     37.45043            0            0            0   0.82342541 
  144000    52525.007     285.7815     1758.239    1702.8689    -1682.683    20.185893     1367.038   -1736.5515    2638.3667   -3278.0161    553.44028    469.15493    572.73791            0    1595.3331   -4179.8313   -64.180545    37.450306    37.450306    37.450306            0            0            0   0.82343357 
  145000    52524.487     285.7815    1765.3133    1702.8689   -1682.6807    20.188172     1372.446   -1736.5353    2638.3617    -3278.005    553.43143    469.15493    572.73791            0    1595.3243   -4179.8313   -64.181181    37.450183    37.450183    37.450183            0            0            0   0.82344173 
  146000    52523.966     285.7815    1772.3886    1702.8689   -1682.6781    20.190807    1377.8549   -1736.5188    2638.3567   -3277.9935    553.42263    469.15493    572.73791            0    1595.3155   -4179.8314   -64.181817    37.450059    37.450059    37.450059            0            0            0   0.82344988 
  147000    52523.446     285.7815    1779.4629    1702.8689   -1682.6758    20.193115    1383.2628   -1736.5027    2638.3516   -3277.9825    553.41389    469.15493    572.73791            0    1595.3067   -4179.8314   -64.182452    37.449935    37.449935    37.449935            0            0            0   0.82345804 
  148000    52522.926     285.7815    1786.4328    1702.8689   -1682.6962    20.172719    1388.5677   -1736.4866    2638.3238   -3277.9942    553.40519    469.15493    572.73791            0     1595.298   -4179.8315   -64.183088    37.449812    37.449812    37.449812            0            0            0    0.8234662 
  149000    52522.405     285.7815    1793.4826    1702.8689   -1682.6992    20.169648    1393.9512   -1736.4707    2638.3136   -3277.9886    553.39654    469.15493    572.73791            0    1595.2894   -4179.8315   -64.183724    37.449688    37.449688    37.449688            0            0            0   0.82347436 
  150000    52521.885     285.7815    1800.4912    1702.8689   -1682.7115    20.157358    1399.2937   -1736.4554    2638.2947   -3277.9923    553.38795    469.15493    572.73791            0    1595.2808   -4179.8315    -64.18436    37.449564    37.449564    37.449564            0            0            0   0.82348252 
  150519    52521.615     285.7815    1804.0591    1702.8689   -1682.7327    20.136165    1401.9983   -1736.4468    2638.2693   -3278.0091    553.38351    469.15493    572.73791            0    1595.2763   -4179.8316    -64.18469      37.4495      37.4495      37.4495            0            0            0   0.82348675 
Loop time of 156.506 on 48 procs for 100000 steps with 2000 atoms

Performance: 55.206 ns/day, 0.435 hours/ns, 638.955 timesteps/s
43.8% CPU use with 48 MPI tasks x 1 OpenMP threads

MPI task timing breakdown:
Section |  min time  |  avg time  |  max time  |%varavg| %total
---------------------------------------------------------------
Pair    | 16.948     | 26.178     | 38.987     |  90.8 | 16.73
Bond    | 0.84159    | 1.099      | 1.521      |  14.2 |  0.70
Kspace  | 26.349     | 42.115     | 52.006     |  99.0 | 26.91
Neigh   | 0.0062178  | 0.0072828  | 0.0081364  |   0.8 |  0.00
Comm    | 57.317     | 70.439     | 89.13      |  94.9 | 45.01
Output  | 0.11878    | 0.12692    | 0.13858    |   1.2 |  0.08
Modify  | 0.44468    | 0.5195     | 0.71076    |   8.6 |  0.33
Other   |            | 16.02      |            |       | 10.24

Nlocal:    41.6667 ave 54 max 29 min
Histogram: 2 2 6 9 8 3 3 7 4 4
Nghost:    2472.81 ave 2503 max 2440 min
Histogram: 1 1 5 7 10 6 7 6 4 1
Neighs:    11206.8 ave 16089 max 7302 min
Histogram: 1 4 9 10 5 8 4 4 1 2

Total # of neighbors = 537928
Ave neighs/atom = 268.964
Ave special neighs/atom = 4.8
Neighbor list builds = 8
Dangerous builds = 0
# >>>>>>>>>  Equilibration run <<<<<<<<<<<<<<<<<<<<<<<<<<<<<<<<<<

fix             NVT_equib all nvt temp ${simulationTemp} ${simulationTemp} 100
fix             NVT_equib all nvt temp 293 ${simulationTemp} 100
fix             NVT_equib all nvt temp 293 293 100

print           "Step Density Temperature Pressure KinEng PotEng TotEng" file Properties_equib_octanolUA_293.txt
Step Density Temperature Pressure KinEng PotEng TotEng
fix             PRINT_equib all print ${printfreq} "$(v_step) $(v_density) $(v_temp) $(v_press) $(v_pe) $(v_ke) $(v_etotal) $(v_enthalpy)" append Properties_equib_octanolUA_293.txt title ""
fix             PRINT_equib all print 1000 "$(v_step) $(v_density) $(v_temp) $(v_press) $(v_pe) $(v_ke) $(v_etotal) $(v_enthalpy)" append Properties_equib_octanolUA_293.txt title ""
# The 'print' and fix print' commands as used above will create a file named 'Properties_equib.txt' which allows you to quickly make plots to test for equilibration


run             ${NVT_equib}
run             1000000
Ewald initialization ...
  using 12-bit tables for long-range coulomb (src/kspace.cpp:332)
  G vector (1/distance) = 0.149129
  estimated absolute RMS force accuracy = 0.0367822
  estimated relative force accuracy = 0.000110768
  KSpace vectors: actual max1d max3d = 128 4 364
                  kxmax kymax kzmax  = 4 4 4
Per MPI rank memory allocation (min/avg/max) = 17.62 | 17.79 | 18.12 Mbytes
Step Volume Temp Press KinEng PotEng TotEng Enthalpy E_vdwl E_coul E_pair E_bond E_angle E_dihed E_impro E_mol E_long E_tail Lx Ly Lz Xy Xz Yz Density 
  150519    52521.615     285.7815    1804.0664    1702.8689   -1682.7329     20.13598    1402.0037   -1736.4467    2638.5057   -3278.0092     553.3835    469.15493    572.73791            0    1595.2763   -4180.0682    -64.18469      37.4495      37.4495      37.4495            0            0            0   0.82348675 
151000 0.8234867517405469739 291.00905885008597807 183.84268811077700434 -1667.3467770525799097 1734.0180117954998877 66.67123474291500429 207.48993190855898661
  151000    52521.615    291.00906    183.84269     1734.018   -1667.3468    66.671235    207.48993   -1730.2288     2593.596   -3317.1525    547.99214    487.75655    614.05704            0    1649.8057   -4180.5197    -64.18469      37.4495      37.4495      37.4495            0            0            0   0.82348675 
152000 0.8234867517405469739 277.4684348709030246 -230.13365310144200748 -1696.1510313501999008 1653.3343177426900183 -42.816713607509001349 -219.0930808470270108
  152000    52521.615    277.46843   -230.13365    1653.3343    -1696.151   -42.816714   -219.09308   -1750.7767    2614.3073   -3317.6814    552.94453     495.5386    573.04725            0    1621.5304   -4181.2121    -64.18469      37.4495      37.4495      37.4495            0            0            0   0.82348675 
153000 0.8234867517405469739 301.01829827218301716 -85.849884696891194835 -1747.5570350955199501 1793.659459078520058 46.102423983000797136 -19.656345316284198788
  153000    52521.615     301.0183   -85.849885    1793.6595    -1747.557    46.102424   -19.656345    -1763.414    2599.1546   -3344.2635     514.2445    476.75188    605.71006            0    1596.7064   -4180.0041    -64.18469      37.4495      37.4495      37.4495            0            0            0   0.82348675 
154000 0.8234867517405469739 295.14379560781299006 -1042.6832245709299514 -1727.4236715115901006 1758.6554166936900856 31.231745182097700564 -767.4363702018430331
  154000    52521.615     295.1438   -1042.6832    1758.6554   -1727.4237    31.231745   -767.43637   -1770.5807    2636.5577   -3315.6335    534.06846    483.90749    570.23387            0    1588.2098   -4181.6105    -64.18469      37.4495      37.4495      37.4495            0            0            0   0.82348675 
155000 0.8234867517405469739 293.46245050174701419 -373.53563849365900751 -1692.7274332941299235 1748.6368876847200227 55.909454390589900186 -230.20908803367399287
  155000    52521.615    293.46245   -373.53564    1748.6369   -1692.7274    55.909454   -230.20909   -1745.3012    2579.3292   -3345.9416    564.55993     489.9621    598.69218            0    1653.2142   -4179.9696    -64.18469      37.4495      37.4495      37.4495            0            0            0   0.82348675 
156000 0.8234867517405469739 299.77070035642901757 915.47740028196403728 -1755.282340494879918 1786.2254731196499051 30.943132624767500261 732.1749091891789476
  156000    52521.615     299.7707     915.4774    1786.2255   -1755.2823    30.943133    732.17491   -1732.1356     2583.143   -3327.7118    507.10862    492.76952    572.55133            0    1572.4295   -4178.7192    -64.18469      37.4495      37.4495      37.4495            0            0            0   0.82348675 
157000 0.8234867517405469739 292.3924835867799743 -325.83219570430901513 -1700.9076713915699202 1742.2613407862500026 41.353669394671399573 -208.22528185551101387
  157000    52521.615    292.39248    -325.8322    1742.2613   -1700.9077    41.353669   -208.22528   -1742.8766    2629.0041   -3292.1724    541.11902    460.16998     589.9757            0    1591.2647   -4178.2999    -64.18469      37.4495      37.4495      37.4495            0            0            0   0.82348675 
158000 0.8234867517405469739 295.50176903664902284 1077.8273740867400647 -1718.086953767669911 1760.7884512314999483 42.701497463831898926 868.28911342006904306
  158000    52521.615    295.50177    1077.8274    1760.7885    -1718.087    42.701497    868.28911   -1765.4115    2664.4859   -3279.3208    516.29342    465.51946    579.42096            0    1561.2338   -4178.3952    -64.18469      37.4495      37.4495      37.4495            0            0            0   0.82348675 
159000 0.8234867517405469739 291.65940932669798258 473.13508458859899974 -1693.0520693968101114 1737.8932156976700298 44.841146300865801777 407.25026292005298956
  159000    52521.615    291.65941    473.13508    1737.8932   -1693.0521    44.841146    407.25026   -1765.1958    2604.7343   -3338.7383    549.10316    500.46076    596.12231            0    1645.6862   -4178.2768    -64.18469      37.4495      37.4495      37.4495            0            0            0   0.82348675 
160000 0.8234867517405469739 290.65561536688198885 -597.25073768908998773 -1750.2686526534000677 1731.911969569699977 -18.356683083705298998 -475.83514810658101624
  160000    52521.615    290.65562   -597.25074     1731.912   -1750.2687   -18.356683   -475.83515   -1787.4705    2624.0524   -3341.9852    549.31639    452.29694    590.10322            0    1591.7166   -4178.5671    -64.18469      37.4495      37.4495      37.4495            0            0            0   0.82348675 
161000 0.8234867517405469739 291.97594714534301374 -737.1827562965800098 -1683.2789302466298977 1739.7793503806099125 56.500420133975701731 -508.16231615125298049
  161000    52521.615    291.97595   -737.18276    1739.7794   -1683.2789     56.50042   -508.16232   -1785.0633    2632.3942   -3331.6561    575.81532    482.55488    590.00701            0    1648.3772    -4178.987    -64.18469      37.4495      37.4495      37.4495            0            0            0   0.82348675 
162000 0.8234867517405469739 289.10094835237197231 606.76107351688199287 -1756.9982106088700675 1722.6482696142500117 -34.349940994618499701 430.41319286464101879
  162000    52521.615    289.10095    606.76107    1722.6483   -1756.9982   -34.349941    430.41319   -1739.5636    2566.4842   -3352.6719    530.48075    458.40833    606.78463            0    1595.6737   -4179.5925    -64.18469      37.4495      37.4495      37.4495            0            0            0   0.82348675 
163000 0.8234867517405469739 290.06368170177501042 745.97455646159596654 -1779.8619061814999895 1728.3848503757399158 -51.477055805757800044 519.91996976614700543
  163000    52521.615    290.06368    745.97456    1728.3849   -1779.8619   -51.477056    519.91997   -1765.3588     2617.772   -3327.0776    506.93312    475.62081    564.66173            0    1547.2157   -4179.4908    -64.18469      37.4495      37.4495      37.4495            0            0            0   0.82348675 
164000 0.8234867517405469739 296.4742448892220068 -530.95413133988699883 -1649.2525629031299559 1766.583084055180052 117.33052115204199595 -289.36647505890601906
  164000    52521.615    296.47424   -530.95413    1766.5831   -1649.2526    117.33052   -289.36648   -1774.7473     2657.886   -3296.8048    553.98493     500.8016    592.76568            0    1647.5522   -4179.9435    -64.18469      37.4495      37.4495      37.4495            0            0            0   0.82348675 
165000 0.8234867517405469739 293.53525094551099528 -280.67683572658398816 -1723.9664506177000476 1749.0706792692599265 25.10422865155420169 -189.88689630293399091
  165000    52521.615    293.53525   -280.67684    1749.0707   -1723.9665    25.104229    -189.8869    -1749.253    2630.9375   -3298.3093    529.08591    458.55822    586.69873            0    1574.3429   -4179.9939    -64.18469      37.4495      37.4495      37.4495            0            0            0   0.82348675 
166000 0.8234867517405469739 289.46863889947002235 -415.87608475465799529 -1711.3888668830300048 1724.8392049547298939 13.450338071703999532 -305.0998802661180207
  166000    52521.615    289.46864   -415.87608    1724.8392   -1711.3889    13.450338   -305.09988   -1711.8065    2571.9513   -3319.0148     549.0179    489.20747    569.40055            0    1607.6259   -4179.1596    -64.18469      37.4495      37.4495      37.4495            0            0            0   0.82348675 
167000 0.8234867517405469739 285.11629616544900045 424.68529405626702555 -1746.6961638413399669 1698.9051645364600063 -47.790999304877900045 277.506843263528026
  167000    52521.615     285.1163    424.68529    1698.9052   -1746.6962   -47.790999    277.50684   -1746.5235    2612.3364   -3314.4229    553.17278    456.37345    558.18046            0    1567.7267   -4180.2357    -64.18469      37.4495      37.4495      37.4495            0            0            0   0.82348675 
168000 0.8234867517405469739 299.09795156039797348 1242.2037506120000216 -1757.9684229159199731 1782.2168057113499344 24.248382795427200875 975.74400969822499974
  168000    52521.615    299.09795    1242.2038    1782.2168   -1757.9684    24.248383    975.74401    -1766.761    2598.0917   -3349.4003    544.52549    458.46074    588.44567            0    1591.4319    -4180.731    -64.18469      37.4495      37.4495      37.4495            0            0            0   0.82348675 
169000 0.8234867517405469739 290.57985037211699364 706.10211656343301456 -1717.7364824102201055 1731.4605132950900952 13.724030884869499403 554.57980895341199812
  169000    52521.615    290.57985    706.10212    1731.4605   -1717.7365    13.724031    554.57981   -1782.8138    2606.4572   -3355.8173    553.46913    502.78666    581.82501            0    1638.0808   -4179.4607    -64.18469      37.4495      37.4495      37.4495            0            0            0   0.82348675 
170000 0.8234867517405469739 293.80189330703097994 118.05818937330400331 -1736.3655049206299736 1750.6595049209699937 14.294000000346400725 104.72348940851999544
  170000    52521.615    293.80189    118.05819    1750.6595   -1736.3655       14.294    104.72349   -1765.4982    2594.6371   -3349.9069    536.90971    478.18262     598.4491            0    1613.5414   -4179.0459    -64.18469      37.4495      37.4495      37.4495            0            0            0   0.82348675 
171000 0.8234867517405469739 296.80922892465900986 427.89467834014601522 -1733.0566464553899095 1768.5791330902400205 35.522486634847197706 363.27863373635102562
  171000    52521.615    296.80923    427.89468    1768.5791   -1733.0566    35.522487    363.27863   -1784.4807    2645.4614   -3318.5731    534.52222    506.02833     544.9659            0    1585.5164   -4179.5538    -64.18469      37.4495      37.4495      37.4495            0            0            0   0.82348675 
172000 0.8234867517405469739 293.81675456719199246 -1100.1070253865100312 -1745.2279798244499034 1750.7480578096699446 5.5200779852234500567 -837.13316892745604036
  172000    52521.615    293.81675    -1100.107    1750.7481    -1745.228     5.520078   -837.13317   -1746.0267    2584.2856   -3341.8043    528.15959    493.52609    574.89068            0    1596.5764   -4180.0631    -64.18469      37.4495      37.4495      37.4495            0            0            0   0.82348675 
173000 0.8234867517405469739 287.83742334264798046 122.16369976799499852 -1759.9407786933400075 1715.1193798474700998 -44.821398845868301919 48.752804289684902983
  173000    52521.615    287.83742     122.1637    1715.1194   -1759.9408   -44.821399    48.752804   -1755.4822    2569.0731   -3366.8066    538.59302    509.29582    558.97702            0    1606.8659   -4180.3976    -64.18469      37.4495      37.4495      37.4495            0            0            0   0.82348675 
174000 0.8234867517405469739 296.60249986162699543 266.23325307509202275 -1799.6922503486900951 1767.3473091728799318 -32.344941175803597844 171.58277673058000801
  174000    52521.615     296.6025    266.23325    1767.3473   -1799.6923   -32.344941    171.58278    -1739.733    2571.3841   -3348.5111    534.47763    473.65535    540.68592            0    1548.8189   -4180.1622    -64.18469      37.4495      37.4495      37.4495            0            0            0   0.82348675 
175000 0.8234867517405469739 295.65609184943701848 1100.2084919046599225 -1750.0609433683200677 1761.7080052071200953 11.647061838800500055 854.37802945409805488
  175000    52521.615    295.65609    1100.2085     1761.708   -1750.0609    11.647062    854.37803   -1748.1666    2614.0153   -3314.0774    532.67449    499.23387    532.10809            0    1564.0165   -4179.9261    -64.18469      37.4495      37.4495      37.4495            0            0            0   0.82348675 
176000 0.8234867517405469739 294.15951821891201234 1762.6536906721000832 -1750.0648461771099846 1752.790462771969942 2.7256165948608699345 1352.8723035552600322
  176000    52521.615    294.15952    1762.6537    1752.7905   -1750.0648    2.7256166    1352.8723   -1782.1105    2634.8461   -3327.6771     542.7137    479.30294    555.59561            0    1577.6122   -4180.4127    -64.18469      37.4495      37.4495      37.4495            0            0            0   0.82348675 
177000 0.8234867517405469739 294.97344188107700802 -202.52446293341398587 -1756.3295155572800468 1757.6403402843700405 1.3108247270881701052 -153.81762398918900203
  177000    52521.615    294.97344   -202.52446    1757.6403   -1756.3295    1.3108247   -153.81762   -1798.5779    2593.5201   -3384.1425    561.00643    466.43854    600.36799            0     1627.813   -4179.0847    -64.18469      37.4495      37.4495      37.4495            0            0            0   0.82348675 
178000 0.8234867517405469739 296.58182757267297802 -397.43722969984702331 -1739.5902647287300624 1767.224130459710068 27.63386573097680099 -276.79267125336002664
  178000    52521.615    296.58183   -397.43723    1767.2241   -1739.5903    27.633866   -276.79267   -1745.0779    2555.1088   -3369.7503    570.38723     471.5652    588.20764            0    1630.1601   -4179.7812    -64.18469      37.4495      37.4495      37.4495            0            0            0   0.82348675 
179000 0.8234867517405469739 293.4440753576520251 574.48311561834702843 -1788.4006027453799561 1748.5273968291498932 -39.873205916227099976 400.16585528532402805
  179000    52521.615    293.44408    574.48312    1748.5274   -1788.4006   -39.873206    400.16586   -1738.8861    2556.4504    -3362.543    542.26454    465.70992    566.16792            0    1574.1424   -4180.1072    -64.18469      37.4495      37.4495      37.4495            0            0            0   0.82348675 
180000 0.8234867517405469739 294.66441807455197477 228.20038291113300488 -1759.2606516021999141 1755.7989788892800789 -3.4616727129168798349 171.3338600573800079
  180000    52521.615    294.66442    228.20038     1755.799   -1759.2607   -3.4616727    171.33386   -1761.8644    2598.7613   -3344.5012    544.42519    478.51042     562.3049            0    1585.2405   -4181.3981    -64.18469      37.4495      37.4495      37.4495            0            0            0   0.82348675 
181000 0.8234867517405469739 287.92202853995598844 301.45027430711297711 -1761.560003461820088 1715.6235117002900097 -45.936491761533901013 184.96654454837300818
  181000    52521.615    287.92203    301.45027    1715.6235     -1761.56   -45.936492    184.96654   -1764.5101    2571.0433   -3373.3407    554.01922       478.35    579.41152            0    1611.7807    -4179.874    -64.18469      37.4495      37.4495      37.4495            0            0            0   0.82348675 
182000 0.8234867517405469739 286.36367565196502483 -614.21796955538104612 -1725.5233638264101046 1706.3378489542899388 -19.185514872118801577 -489.66043632451999201
  182000    52521.615    286.36368   -614.21797    1706.3378   -1725.5234   -19.185515   -489.66044   -1730.5824    2590.7578   -3319.3051    559.21972    464.67444    569.88759            0    1593.7817   -4179.4805    -64.18469      37.4495      37.4495      37.4495            0            0            0   0.82348675 
183000 0.8234867517405469739 298.58099317556298047 326.88840434357098275 -1786.4847415810199891 1779.1364371682000183 -7.3483044128172396725 243.03967506712200475
  183000    52521.615    298.58099     326.8884    1779.1364   -1786.4847   -7.3483044    243.03968   -1790.1434    2622.5495   -3347.3147    540.70878    462.09765    558.02354            0      1560.83   -4179.7208    -64.18469      37.4495      37.4495      37.4495            0            0            0   0.82348675 
184000 0.8234867517405469739 290.34421412692501008 -694.89242381196800125 -1744.0288248139700045 1730.0564419063500736 -13.97238290761169921 -546.2418291230350178
  184000    52521.615    290.34421   -694.89242    1730.0564   -1744.0288   -13.972383   -546.24183   -1795.3677     2607.317   -3368.4959    570.16935    510.38573    543.91197            0     1624.467   -4180.4452    -64.18469      37.4495      37.4495      37.4495            0            0            0   0.82348675 
185000 0.8234867517405469739 294.90571403210702783 -420.35915204640599541 -1745.8912387370598935 1757.2367744624700663 11.345535725410400119 -310.63859506123998244
  185000    52521.615    294.90571   -420.35915    1757.2368   -1745.8912    11.345536    -310.6386   -1798.3349    2594.8648   -3383.0129    557.03345    489.04715    591.04102            0    1637.1216   -4179.5427    -64.18469      37.4495      37.4495      37.4495            0            0            0   0.82348675 
186000 0.8234867517405469739 293.28749502351098499 528.52566144018601335 -1809.7437241401100891 1747.5943910981100089 -62.149333041998502836 342.68751865683401547
  186000    52521.615     293.2875    528.52566    1747.5944   -1809.7437   -62.149333    342.68752   -1738.5771    2554.3096   -3363.9802    526.03749    473.34413    554.85487            0    1554.2365   -4179.7127    -64.18469      37.4495      37.4495      37.4495            0            0            0   0.82348675 
187000 0.8234867517405469739 283.65583756632798895 60.628805436924501748 -1753.8092924072600454 1690.2028185464000671 -63.606473860865399672 -17.166392506133600904
[...]
 4123000    52521.615    282.43476    982.12496    1682.9269   -1876.8507   -193.92387     558.3582   -1743.2388    2474.7809   -3450.2695    565.80195    486.94981      520.667            0    1573.4188   -4181.8117    -64.18469      37.4495      37.4495      37.4495            0            0            0   0.82348675 
4124000 0.8234867517405469739 294.57718872391598097 -734.36962280371596989 -1819.8820114817699505 1755.2792106533399874 -64.602800828426595103 -627.11075033649694888
4124000 0.8234867517405469739 294.57718872391598097 -734.36962280371596989 -1819.8820114817699505 1755.2792106533399874 -64.602800828426595103 -627.11075033649694888
 4124000    52521.615    294.57719   -734.36962    1755.2792    -1819.882   -64.602801   -627.11075    -1761.744    2477.0155   -3465.1324    599.83826    481.56406    563.84805            0    1645.2504   -4180.4039    -64.18469      37.4495      37.4495      37.4495            0            0            0   0.82348675 
4125000 0.8234867517405469739 295.01103903034197629 203.05186096073398971 -1828.4363338476800891 1757.8643681351700252 -70.571965712505502211 84.960456117187803216
4125000 0.8234867517405469739 295.01103903034197629 203.05186096073398971 -1828.4363338476800891 1757.8643681351700252 -70.571965712505502211 84.960456117187803216
 4125000    52521.615    295.01104    203.05186    1757.8644   -1828.4363   -70.571966    84.960456   -1775.7552    2507.6205   -3447.6665    599.16018    475.94083    544.12913            0    1619.2301   -4179.5317    -64.18469      37.4495      37.4495      37.4495            0            0            0   0.82348675 
4126000 0.8234867517405469739 288.21027132331300891 144.19637295245598807 -1858.2496531056899585 1717.3410464742401018 -140.90860663144999876 -30.457951324773901547
4126000 0.8234867517405469739 288.21027132331300891 144.19637295245598807 -1858.2496531056899585 1717.3410464742401018 -140.90860663144999876 -30.457951324773901547
 4126000    52521.615    288.21027    144.19637     1717.341   -1858.2497   -140.90861   -30.457951   -1763.8796    2445.2156   -3499.7145    587.39922    493.38173    560.68389            0    1641.4648   -4181.0505    -64.18469      37.4495      37.4495      37.4495            0            0            0   0.82348675 
4127000 0.8234867517405469739 284.0654433363699809 -1010.2790778718699585 -1842.8992456976400263 1692.6435115811600554 -150.25573411647900457 -924.10311951752396453
4127000 0.8234867517405469739 284.0654433363699809 -1010.2790778718699585 -1842.8992456976400263 1692.6435115811600554 -150.25573411647900457 -924.10311951752396453
 4127000    52521.615    284.06544   -1010.2791    1692.6435   -1842.8992   -150.25573   -924.10312   -1721.8205    2428.0963   -3474.6129    620.41587    458.15661    553.14114            0    1631.7136   -4180.8886    -64.18469      37.4495      37.4495      37.4495            0            0            0   0.82348675 
4128000 0.8234867517405469739 289.35443185015998324 -1792.1090384919800726 -1886.6454450753799392 1724.158686343520003 -162.48675873186098784 -1535.1954727556199032
4128000 0.8234867517405469739 289.35443185015998324 -1792.1090384919800726 -1886.6454450753799392 1724.158686343520003 -162.48675873186098784 -1535.1954727556199032
 4128000    52521.615    289.35443    -1792.109    1724.1587   -1886.6454   -162.48676   -1535.1955   -1759.0305    2462.3814   -3476.4423    574.27825    480.35799    535.16059            0    1589.7968   -4179.7932    -64.18469      37.4495      37.4495      37.4495            0            0            0   0.82348675 
4129000 0.8234867517405469739 302.34032742470100175 -1526.5477060905900544 -1780.0739264751600786 1801.5369539291700676 21.463027454012699735 -1147.8326423490200341
4129000 0.8234867517405469739 302.34032742470100175 -1526.5477060905900544 -1780.0739264751600786 1801.5369539291700676 21.463027454012699735 -1147.8326423490200341
 4129000    52521.615    302.34033   -1526.5477     1801.537   -1780.0739    21.463027   -1147.8326   -1755.2974    2495.1612   -3439.1987    613.74844    500.02818    545.34812            0    1659.1247   -4179.0624    -64.18469      37.4495      37.4495      37.4495            0            0            0   0.82348675 
4130000 0.8234867517405469739 294.38771795062001502 17.486586501207899147 -1865.3296007390399609 1754.150222659289966 -111.17937807975700082 -97.785109565304594526
4130000 0.8234867517405469739 294.38771795062001502 17.486586501207899147 -1865.3296007390399609 1754.150222659289966 -111.17937807975700082 -97.785109565304594526
 4130000    52521.615    294.38772    17.486587    1754.1502   -1865.3296   -111.17938    -97.78511   -1754.4939    2471.1593   -3463.9219    595.28653    470.57902    532.72678            0    1598.5923   -4180.5874    -64.18469      37.4495      37.4495      37.4495            0            0            0   0.82348675 
4131000 0.8234867517405469739 299.64832231016498554 -544.95751733369297654 -1851.6158822357499503 1785.4962664849499561 -66.119615750793400366 -483.54283986789101846
4131000 0.8234867517405469739 299.64832231016498554 -544.95751733369297654 -1851.6158822357499503 1785.4962664849499561 -66.119615750793400366 -483.54283986789101846
 4131000    52521.615    299.64832   -544.95752    1785.4963   -1851.6159   -66.119616   -483.54284    -1793.898      2513.46   -3459.7681     572.7273    461.51939    573.90548            0    1608.1522     -4179.33    -64.18469      37.4495      37.4495      37.4495            0            0            0   0.82348675 
4132000 0.8234867517405469739 290.87418399923501511 -32.659102918723299069 -1860.3239477342099235 1733.2143412099899251 -127.10960652421900363 -152.12562631197400265
4132000 0.8234867517405469739 290.87418399923501511 -32.659102918723299069 -1860.3239477342099235 1733.2143412099899251 -127.10960652421900363 -152.12562631197400265
 4132000    52521.615    290.87418   -32.659103    1733.2143   -1860.3239   -127.10961   -152.12563   -1773.0712    2481.8585   -3471.5278    581.68134    493.44727    536.07526            0    1611.2039   -4180.3151    -64.18469      37.4495      37.4495      37.4495            0            0            0   0.82348675 
4133000 0.8234867517405469739 298.05187288983000826 564.08335317930004749 -1908.0947947446200033 1775.9836002445199483 -132.11119450010099285 299.96192031245698217
4133000 0.8234867517405469739 298.05187288983000826 564.08335317930004749 -1908.0947947446200033 1775.9836002445199483 -132.11119450010099285 299.96192031245698217
 4133000    52521.615    298.05187    564.08335    1775.9836   -1908.0948   -132.11119    299.96192    -1749.956    2437.2093   -3492.8543    578.58507    461.41495    544.75946            0    1584.7595   -4180.1075    -64.18469      37.4495      37.4495      37.4495            0            0            0   0.82348675 
4134000 0.8234867517405469739 296.22906599750001533 -953.53476796361201195 -1860.3317593722399579 1765.1221514778999335 -95.209607894344102874 -825.59233405352199497
4134000 0.8234867517405469739 296.22906599750001533 -953.53476796361201195 -1860.3317593722399579 1765.1221514778999335 -95.209607894344102874 -825.59233405352199497
 4134000    52521.615    296.22907   -953.53477    1765.1222   -1860.3318   -95.209608   -825.59233   -1783.7246    2506.2018   -3457.6445    598.29084    440.23573    558.78617            0    1597.3127   -4180.1217    -64.18469      37.4495      37.4495      37.4495            0            0            0   0.82348675 
4135000 0.8234867517405469739 289.90760907703497651 -376.12846742359499785 -1803.4378679019200717 1727.4548699018901061 -75.982998000029297714 -364.08757966054997723
4135000 0.8234867517405469739 289.90760907703497651 -376.12846742359499785 -1803.4378679019200717 1727.4548699018901061 -75.982998000029297714 -364.08757966054997723
 4135000    52521.615    289.90761   -376.12847    1727.4549   -1803.4379   -75.982998   -364.08758   -1716.5288    2453.0862   -3443.0379    606.07823    499.45057    534.07122            0       1639.6   -4179.5953    -64.18469      37.4495      37.4495      37.4495            0            0            0   0.82348675 
4136000 0.8234867517405469739 291.56939969773299026 -766.60600807125797473 -1771.9793717678498979 1737.3568807860499419 -34.622490981802201304 -621.82266959810704066
4136000 0.8234867517405469739 291.56939969773299026 -766.60600807125797473 -1771.9793717678498979 1737.3568807860499419 -34.622490981802201304 -621.82266959810704066
 4136000    52521.615     291.5694   -766.60601    1737.3569   -1771.9794   -34.622491   -621.82267   -1793.5318    2504.5628   -3469.8039    613.18269    495.60561    589.03627            0    1697.8246    -4180.835    -64.18469      37.4495      37.4495      37.4495            0            0            0   0.82348675 
4137000 0.8234867517405469739 298.30955406729697188 -467.61675038910300373 -1860.3474707719499293 1777.5190294328599521 -82.82844133908929507 -441.0106580990370162
4137000 0.8234867517405469739 298.30955406729697188 -467.61675038910300373 -1860.3474707719499293 1777.5190294328599521 -82.82844133908929507 -441.0106580990370162
 4137000    52521.615    298.30955   -467.61675     1777.519   -1860.3475   -82.828441   -441.01066   -1771.1833    2501.8561   -3449.0936    570.64027    488.42071    529.68511            0    1588.7461   -4179.7664    -64.18469      37.4495      37.4495      37.4495            0            0            0   0.82348675 
4138000 0.8234867517405469739 291.43424877509198723 652.45431529203801801 -1899.6337347655401118 1736.5515651883299597 -163.08216957720699725 336.68079398523298096
4138000 0.8234867517405469739 291.43424877509198723 652.45431529203801801 -1899.6337347655401118 1736.5515651883299597 -163.08216957720699725 336.68079398523298096
 4138000    52521.615    291.43425    652.45432    1736.5516   -1899.6337   -163.08217    336.68079   -1726.1493     2441.976   -3464.6198    546.46175    473.68375    544.84056            0    1564.9861   -4180.4464    -64.18469      37.4495      37.4495      37.4495            0            0            0   0.82348675 
4139000 0.8234867517405469739 282.27920124685300607 -23.802960429312999935 -1902.3629777303199262 1681.999939285200071 -220.3630384451219868 -238.59548440632099187
4139000 0.8234867517405469739 282.27920124685300607 -23.802960429312999935 -1902.3629777303199262 1681.999939285200071 -220.3630384451219868 -238.59548440632099187
 4139000    52521.615     282.2792    -23.80296    1681.9999    -1902.363   -220.36304   -238.59548   -1786.1576    2513.8833   -3452.8024    538.68741     486.5994    525.15265            0    1550.4395   -4180.5282    -64.18469      37.4495      37.4495      37.4495            0            0            0   0.82348675 
4140000 0.8234867517405469739 290.6902185330459929 1530.7617612893200203 -1834.5577948095299234 1732.118157355160065 -102.4396374543720043 1070.0838885607599877
4140000 0.8234867517405469739 290.6902185330459929 1530.7617612893200203 -1834.5577948095299234 1732.118157355160065 -102.4396374543720043 1070.0838885607599877
 4140000    52521.615    290.69022    1530.7618    1732.1182   -1834.5578   -102.43964    1070.0839   -1739.9847    2489.1315    -3430.455    586.41847    473.33012    536.14864            0    1595.8972   -4179.6019    -64.18469      37.4495      37.4495      37.4495            0            0            0   0.82348675 
4141000 0.8234867517405469739 290.93130731549899792 -105.24585519127400346 -1874.2771737505499914 1733.5547184466499857 -140.72245530389798773 -221.33803138375299113
4141000 0.8234867517405469739 290.93130731549899792 -105.24585519127400346 -1874.2771737505499914 1733.5547184466499857 -140.72245530389798773 -221.33803138375299113
 4141000    52521.615    290.93131   -105.24586    1733.5547   -1874.2772   -140.72246   -221.33803   -1782.1314    2523.2913   -3439.4623    548.99176    466.31772    549.87564            0    1565.1851   -4180.6222    -64.18469      37.4495      37.4495      37.4495            0            0            0   0.82348675 
4142000 0.8234867517405469739 298.88665533717301059 340.84905522586200277 -1817.6122134323700266 1780.9577677338199919 -36.65444569854729906 224.42702770835199999
4142000 0.8234867517405469739 298.88665533717301059 340.84905522586200277 -1817.6122134323700266 1780.9577677338199919 -36.65444569854729906 224.42702770835199999
 4142000    52521.615    298.88666    340.84906    1780.9578   -1817.6122   -36.654446    224.42703   -1771.9927    2536.2651   -3416.3237    571.54727    492.45063    534.71361            0    1598.7115   -4180.5961    -64.18469      37.4495      37.4495      37.4495            0            0            0   0.82348675 
4143000 0.8234867517405469739 281.9295863135109812 160.78254414519599891 -1818.0297081511100714 1679.9167100070299057 -138.11299814407900044 -14.957768930603700497
4143000 0.8234867517405469739 281.9295863135109812 160.78254414519599891 -1818.0297081511100714 1679.9167100070299057 -138.11299814407900044 -14.957768930603700497
 4143000    52521.615    281.92959    160.78254    1679.9167   -1818.0297     -138.113   -14.957769   -1779.1873    2545.1427   -3413.9387    584.79507    485.20033    525.91357            0     1595.909   -4179.8941    -64.18469      37.4495      37.4495      37.4495            0            0            0   0.82348675 
4144000 0.8234867517405469739 294.16011832183102115 -654.48417641384696708 -1842.1178121709299376 1752.7940385688000333 -89.323773602128994753 -590.64155776438599332
4144000 0.8234867517405469739 294.16011832183102115 -654.48417641384696708 -1842.1178121709299376 1752.7940385688000333 -89.323773602128994753 -590.64155776438599332
 4144000    52521.615    294.16012   -654.48418     1752.794   -1842.1178   -89.323774   -590.64156   -1796.2206    2499.0319   -3477.4854    601.65119    488.60837    545.10801            0    1635.3676   -4180.2966    -64.18469      37.4495      37.4495      37.4495            0            0            0   0.82348675 
4145000 0.8234867517405469739 300.09854085536397861 241.03596060165500603 -1837.4287287186200501 1788.1789563974400608 -49.249772321178596712 135.37747769782700402
4145000 0.8234867517405469739 300.09854085536397861 241.03596060165500603 -1837.4287287186200501 1788.1789563974400608 -49.249772321178596712 135.37747769782700402
 4145000    52521.615    300.09854    241.03596     1788.179   -1837.4287   -49.249772    135.37748   -1768.2455    2506.8971   -3442.4172     562.1494    470.33362    572.50547            0    1604.9885   -4181.0688    -64.18469      37.4495      37.4495      37.4495            0            0            0   0.82348675 
4146000 0.8234867517405469739 292.5440556542109789 -1872.951400648300023 -1840.5836959251500957 1743.1645040625001002 -97.419191862647295466 -1532.0510437149100653
4146000 0.8234867517405469739 292.5440556542109789 -1872.951400648300023 -1840.5836959251500957 1743.1645040625001002 -97.419191862647295466 -1532.0510437149100653
 4146000    52521.615    292.54406   -1872.9514    1743.1645   -1840.5837   -97.419192    -1532.051   -1787.3838    2509.2542   -3458.3329    610.94106    450.92873    555.87941            0    1617.7492   -4180.2033    -64.18469      37.4495      37.4495      37.4495            0            0            0   0.82348675 
4147000 0.8234867517405469739 282.82090248093999207 159.61517057528800478 -1895.757927369880008 1685.2277415420498983 -210.530185827835993 -88.269134277390705279
4147000 0.8234867517405469739 282.82090248093999207 159.61517057528800478 -1895.757927369880008 1685.2277415420498983 -210.530185827835993 -88.269134277390705279
 4147000    52521.615     282.8209    159.61517    1685.2277   -1895.7579   -210.53019   -88.269134   -1750.6067    2468.7092   -3462.1922    607.34834    459.41959    499.66638            0    1566.4343   -4180.2948    -64.18469      37.4495      37.4495      37.4495            0            0            0   0.82348675 
4148000 0.8234867517405469739 284.07781651719000138 19.290215828472401682 -1862.310792995419888 1692.7172389025299708 -169.59355409288698979 -154.81775262411798622
4148000 0.8234867517405469739 284.07781651719000138 19.290215828472401682 -1862.310792995419888 1692.7172389025299708 -169.59355409288698979 -154.81775262411798622
 4148000    52521.615    284.07782    19.290216    1692.7172   -1862.3108   -169.59355   -154.81775   -1761.5123     2477.738    -3464.022    573.05548    490.56349    538.09223            0    1601.7112   -4180.2478    -64.18469      37.4495      37.4495      37.4495            0            0            0   0.82348675 
4149000 0.8234867517405469739 303.27863637297002697 -1557.6115520788100639 -1848.9229316212199592 1807.1279984944399075 -41.794933126784599153 -1234.8846975765300158
4149000 0.8234867517405469739 303.27863637297002697 -1557.6115520788100639 -1848.9229316212199592 1807.1279984944399075 -41.794933126784599153 -1234.8846975765300158
 4149000    52521.615    303.27864   -1557.6116     1807.128   -1848.9229   -41.794933   -1234.8847    -1766.735    2517.9998   -3428.8852    578.70015    484.30679    516.95534            0    1579.9623     -4180.15    -64.18469      37.4495      37.4495      37.4495            0            0            0   0.82348675 
4150000 0.8234867517405469739 282.38005609828900333 726.32254466344204502 -1852.6453922453999894 1682.6008969655499641 -170.04449527985198642 386.29960256053300327
4150000 0.8234867517405469739 282.38005609828900333 726.32254466344204502 -1852.6453922453999894 1682.6008969655499641 -170.04449527985198642 386.29960256053300327
 4150000    52521.615    282.38006    726.32254    1682.6009   -1852.6454    -170.0445     386.2996   -1737.2249     2466.698   -3450.5573    589.02011    471.36974    537.52208            0    1597.9119   -4180.0305    -64.18469      37.4495      37.4495      37.4495            0            0            0   0.82348675 
 4150519    52521.615    292.57864    537.17097    1743.3706   -1867.6917   -124.32114    287.13779   -1746.2981     2469.297    -3456.082    566.62198    458.07239    563.69583            0    1588.3902   -4179.0809    -64.18469      37.4495      37.4495      37.4495            0            0            0   0.82348675 
Loop time of 5289.29 on 48 procs for 3000000 steps with 2000 atoms

Performance: 49.005 ns/day, 0.490 hours/ns, 567.184 timesteps/s
43.5% CPU use with 48 MPI tasks x 1 OpenMP threads

MPI task timing breakdown:
Section |  min time  |  avg time  |  max time  |%varavg| %total
---------------------------------------------------------------
Pair    | 663.63     | 777.79     | 923.29     | 227.7 | 14.70
Bond    | 29.485     | 32.897     | 36.636     |  28.2 |  0.62
Kspace  | 893.16     | 1156.9     | 1355.3     | 331.5 | 21.87
Neigh   | 191.62     | 223.03     | 251.07     | 126.4 |  4.22
Comm    | 1942.8     | 2298.3     | 2804.3     | 416.5 | 43.45
Output  | 13.378     | 13.421     | 13.439     |   0.5 |  0.25
Modify  | 181.89     | 473.53     | 681.2      | 558.5 |  8.95
Other   |            | 313.4      |            |       |  5.93

Nlocal:    41.6667 ave 62 max 30 min
Histogram: 2 8 11 5 11 6 3 1 0 1
Nghost:    2474.71 ave 2500 max 2434 min
Histogram: 1 1 1 2 6 8 16 8 1 4
Neighs:    11196 ave 17025 max 7480 min
Histogram: 1 5 9 12 9 8 2 1 0 1

Total # of neighbors = 537409
Ave neighs/atom = 268.704
Ave special neighs/atom = 4.8
Neighbor list builds = 254949
Dangerous builds = 0

write_data      restart.${NAME}.final.data
write_data      restart.octanol_ua_293.final.data
Ewald initialization ...
  using 12-bit tables for long-range coulomb (src/kspace.cpp:332)
  G vector (1/distance) = 0.149129
  estimated absolute RMS force accuracy = 0.0367822
  estimated relative force accuracy = 0.000110768
  KSpace vectors: actual max1d max3d = 128 4 364
                  kxmax kymax kzmax  = 4 4 4
Total wall time: 2:01:46
