
variable        infile index octanol_ua.data   # The name of the (edited) data file

#>>>>>> Simulation settings <<<<<<<

units		 real		#angstroms = length -
atom_style	 full		#How the atoms are defined in the input data file
boundary        p p p           #periodic box in x, y and z
pair_style	 lj/cut/coul/long 14.0    #'lj/cut/coul/long 12.0' for your ethanol simulation
pair_modify     tail yes            #Tail corrections
pair_modify     mix arithmetic      #Lorentz-Berthelot pair interactions between dissimilar atom

# The settings below are additional settings you must add for your ethanol simulation as already detailed in your example NPT LAMMPS script in the tutorial
# For your ethanol homework, change/edit the pair_style line as advised above and uncomment the extra settings below and you should be good to go for this section.

special_bonds   lj/coul 0.0 0.0 0.5
kspace_style    ewald 0.0001
bond_style      harmonic
angle_style     harmonic
dihedral_style  opls


# >>> Using the variable command in LAMMPS to define inputs/settings for the simulation <<<<<<

variable   simulationTemp  index 310     #Simulation temperature
variable   simulationPress equal 0.987	#Simulation pressure

# Output files frequencies
variable        dumpfreq   index 1000          #Output frequency of dump information to dump
variable        thermofreq index 1000          #Output frequency of property information to log
variable        printfreq  index 1000          #Output frequency of information to be printed
variable        restartfreq index 1000000      #Output frequency of restart files


# Simulation run times (equilibration and production)
variable        NVT_equib  index 1000000       # Equilibration run length (in timesteps)
variable        NVT_prod   index 3000000       # Simulation run length  (in timesteps)


# Defining properties to output
# The first expression after the 'variable' command is a user defined name for the variable, it can be anything
# The expression after the 'equal' keyword are LAMMPS special/reserved terms for those property

variable    step        equal step
variable    density     equal density
variable    temp        equal temp
variable    press       equal press
variable    ke          equal ke
variable    pe          equal pe
variable    etotal      equal etotal
variable    enthalpy    equal enthalpy


# >>>>>>>>>>> Reading data, Neighbor list settings, energy minimization, assigning initial velocities & specifying thermodynamic property output style to log files <<<<<<<<<

read_data	${infile}
read_data	octanol_ua.data
  orthogonal box = (0 0 0) to (40 40 40)
  3 by 4 by 4 MPI processor grid
  reading atoms ...
  2000 atoms
  scanning bonds ...
  1 = max bonds/atom
  scanning angles ...
  1 = max angles/atom
  scanning dihedrals ...
  1 = max dihedrals/atom
  reading bonds ...
  1800 bonds
  reading angles ...
  1600 angles
  reading dihedrals ...
  1400 dihedrals
  2 = max # of 1-2 neighbors
  2 = max # of 1-3 neighbors
  4 = max # of 1-4 neighbors
  6 = max # of special neighbors
  special bonds CPU = 0.0158883 secs
  read_data CPU = 0.0419627 secs
neighbor        1.0 bin
neigh_modify    delay 0 every 1 check yes page 1000000 one 20000
timestep        1.0

minimize        1e-4 1e-6 10000 100000        #Energy minimize before creating velocities
Ewald initialization ...
  using 12-bit tables for long-range coulomb (src/kspace.cpp:332)
  G vector (1/distance) = 0.147428
  estimated absolute RMS force accuracy = 0.041374
  estimated relative force accuracy = 0.000124597
  KSpace vectors: actual max1d max3d = 128 4 364
                  kxmax kymax kzmax  = 4 4 4
Neighbor list info ...
  update every 1 steps, delay 0 steps, check yes
  max neighbors/atom: 20000, page size: 1000000
  master list distance cutoff = 15
  ghost atom cutoff = 15
  binsize = 7.5, bins = 6 6 6
  1 neighbor lists, perpetual/occasional/extra = 1 0 0
  (1) pair lj/cut/coul/long, perpetual
      attributes: half, newton on
      pair build: half/bin/newton
      stencil: half/bin/3d/newton
      bin: standard
Per MPI rank memory allocation (min/avg/max) = 18.73 | 18.85 | 19.24 Mbytes
Step Temp E_pair E_mol TotEng Press 
       0            0    278272.25    45807.952     324080.2    1091500.2 
     519            0   -2759.2838    366.72189   -2392.5619    -653.1094 
Loop time of 2.16428 on 48 procs for 519 steps with 2000 atoms

41.2% CPU use with 48 MPI tasks x 1 OpenMP threads

Minimization stats:
  Stopping criterion = energy tolerance
  Energy initial, next-to-last, final = 
         324080.203868      -2392.3711054     -2392.56188381
  Force two-norm initial, final = 76473.1 25.3948
  Force max component initial, final = 6066.45 5.47673
  Final line search alpha, max atom move = 0.0145911 0.0799117
  Iterations, force evaluations = 519 954

MPI task timing breakdown:
Section |  min time  |  avg time  |  max time  |%varavg| %total
---------------------------------------------------------------
Pair    | 0.056468   | 0.32588    | 0.62802    |  28.2 | 15.06
Bond    | 0.0037748  | 0.011295   | 0.017437   |   3.5 |  0.52
Kspace  | 0.26188    | 0.6159     | 0.88871    |  20.8 | 28.46
Neigh   | 0.037595   | 0.041899   | 0.046522   |   1.3 |  1.94
Comm    | 0.51864    | 0.65174    | 0.78425    |   6.6 | 30.11
Output  | 0          | 0          | 0          |   0.0 |  0.00
Modify  | 0          | 0          | 0          |   0.0 |  0.00
Other   |            | 0.5176     |            |       | 23.91

Nlocal:    41.6667 ave 67 max 13 min
Histogram: 3 5 3 4 6 5 5 8 8 1
Nghost:    2115.67 ave 2186 max 2016 min
Histogram: 13 2 1 0 0 0 1 10 8 13
Neighs:    9780.23 ave 16722 max 1938 min
Histogram: 4 5 4 5 3 5 3 7 9 3

Total # of neighbors = 469451
Ave neighs/atom = 234.726
Ave special neighs/atom = 4.8
Neighbor list builds = 47
Dangerous builds = 0
#velocity	all create ${simulationTemp} 886874 mom yes rot yes dist gaussian

velocity        all create  ${simulationTemp} 317879265 units box
velocity        all create  310 317879265 units box
velocity        all zero linear units box

# The 'velocity' command line above assigns initial velocities to the atoms in our data file, see the LAMMPS 'velocity' command
# The number '886874' is the seed number which helps LAMMPS to consistently assign the same randomized velocities for the same simulation with the same seed number
# Changing that seed number for your simulation of a given system is one easy way to run an 'independent' simulation of the same system as taught in class
# You will need to do this for your homework

thermo_style    custom step vol temp press ke pe etotal enthalpy evdwl ecoul epair ebond eangle edihed eimp emol elong etail lx ly lz xy xz yz density
thermo          ${thermofreq}
thermo          1000

fix npt_density all npt temp ${simulationTemp} ${simulationTemp} 100 iso ${simulationPress} ${simulationPress} 1000
fix npt_density all npt temp 310 ${simulationTemp} 100 iso ${simulationPress} ${simulationPress} 1000
fix npt_density all npt temp 310 310 100 iso ${simulationPress} ${simulationPress} 1000
fix npt_density all npt temp 310 310 100 iso 0.987 ${simulationPress} 1000
fix npt_density all npt temp 310 310 100 iso 0.987 0.987 1000

run 50000
Ewald initialization ...
  using 12-bit tables for long-range coulomb (src/kspace.cpp:332)
  G vector (1/distance) = 0.147428
  estimated absolute RMS force accuracy = 0.041374
  estimated relative force accuracy = 0.000124597
  KSpace vectors: actual max1d max3d = 128 4 364
                  kxmax kymax kzmax  = 4 4 4
Per MPI rank memory allocation (min/avg/max) = 17.6 | 17.76 | 18.11 Mbytes
Step Volume Temp Press KinEng PotEng TotEng Enthalpy E_vdwl E_coul E_pair E_bond E_angle E_dihed E_impro E_mol E_long E_tail Lx Ly Lz Xy Xz Yz Density 
     519        64000          310     666.2456    1847.1782   -2392.5619    -545.3837    76.472855   -1771.8765    3145.3273   -2759.2838    23.571376    41.518217     301.6323            0    366.72189   -4132.7346   -52.673181           40           40           40            0            0            0   0.67579459 
    1000    67093.265    273.97819   -63.115799    1632.5372   -882.26163    750.27558    688.51762    -1567.092    3284.2903   -2413.4284    499.03395    422.60973    609.52313            0    1531.1668   -4130.6267   -50.244739    40.634318    40.634318    40.634318            0            0            0   0.64463779 
    2000    67154.803    315.93718   -526.67541    1882.5557   -632.12523    1250.4304    734.61302   -1478.1592    3235.9237   -2370.9257    572.98291    470.75879    695.05879            0    1738.8005   -4128.6903   -50.198697    40.646737    40.646737    40.646737            0            0            0   0.64404707 
    3000    63570.231    315.59276    1079.0959    1880.5034   -801.18829    1079.3151    2079.7521   -1452.5986    3064.9521    -2518.132    542.27735    494.47144    680.19496            0    1716.9437   -4130.4856    -53.02928    39.910264    39.910264    39.910264            0            0            0   0.68036333 
    4000    60945.718    302.32817   -1020.5974    1801.4645   -900.33524     901.1293   -6.0090748   -1487.5095    3005.6927   -2611.0681    537.50443    495.99264     677.2358            0    1710.7329   -4129.2513   -55.312887    39.353292    39.353292    39.353292            0            0            0    0.7096619 
    5000    57209.752    312.37829   -45.561236    1861.3496   -1079.2358    782.11374    744.09993   -1635.5621    3030.0775   -2737.7612    476.85419    482.57718    699.09402            0    1658.5254   -4132.2766   -58.924981     38.53216     38.53216     38.53216            0            0            0   0.75600492 
    6000    57590.374    307.86646   -263.76895    1834.4652   -1043.2548    791.21038    569.67176   -1577.8311    2939.2979   -2771.3882    520.17432    515.41491     692.5442            0    1728.1334    -4132.855   -58.535539    38.617424    38.617424    38.617424            0            0            0   0.75100839 
    7000    56895.564    303.65752    -738.9598    1809.3856   -1139.0316      670.354    57.192172   -1621.1759    2866.6417   -2886.5059    526.62156    504.43272    716.41999            0    1747.4743   -4131.9718   -59.250376    38.461493    38.461493    38.461493            0            0            0   0.76017972 
    8000    56462.524    310.26469    128.96675    1848.7554   -1161.5601    687.19526    793.39267   -1623.8719    2841.7439   -2915.1527    519.99645     537.0489    696.54718            0    1753.5925   -4133.0246   -59.704798    38.363665    38.363665    38.363665            0            0            0   0.76600993 
    9000    55856.803    313.96194   -44.658873    1870.7859   -1146.6044     724.1815    687.80175   -1608.4164    2819.9984   -2919.5271    511.52719    526.52696    734.86848            0    1772.9226    -4131.109   -60.352248    38.225986    38.225986    38.225986            0            0            0   0.77431668 
   10000    55292.704    314.38412    164.19913    1873.3016    -1199.959    673.34254    805.75064   -1626.2349     2832.947   -2924.1894    512.11448    515.97342    696.14247            0    1724.2304   -4130.9016   -60.967964    38.096868    38.096868    38.096868            0            0            0    0.7822163 
   11000    56088.662    311.44637    289.91166    1855.7966   -1230.1612    625.63535    862.78181   -1586.8629    2774.9468     -2944.67    521.31594     510.3119    682.88097            0    1714.5088   -4132.7538   -60.102763    38.278804    38.278804    38.278804            0            0            0   0.77111581 
   12000    55548.008    314.37601   -363.83475    1873.2533   -1216.4277    656.82559    362.07916   -1646.7677    2825.9857    -2952.385    540.94126    539.57549    655.44058            0    1735.9573    -4131.603    -60.68775    38.155413    38.155413    38.155413            0            0            0   0.77862116 
   13000    55888.526    306.38688   -1223.2482    1825.6489   -1278.0328    547.61608   -449.42519   -1587.5331    2734.3841   -2983.2622    525.60268    536.48733    643.13936            0    1705.2294   -4130.1133   -60.317991    38.233221    38.233221    38.233221            0            0            0   0.77387717 
   14000      53904.6    308.92607    265.31911     1840.779   -1311.6014    529.17762    737.75646   -1690.2546    2780.0897   -3041.2664    529.73599    510.64345    689.28563            0    1729.6651   -4131.1015   -62.537958     37.77536     37.77536     37.77536            0            0            0   0.80235925 
   15000    55261.178    306.38391    359.76479    1825.6312   -1312.7596    512.87162    802.81599   -1646.8033    2726.5064   -3050.4723    545.39628    539.00445    653.31205            0    1737.7128   -4130.1754   -61.002745    38.089626    38.089626    38.089626            0            0            0   0.78266254 
   16000     55027.84      313.523    115.77262    1868.1705    -1227.444    640.72645    733.63683   -1645.3367    2793.8313   -2981.8079    546.08285     544.9681    663.31289            0    1754.3638   -4130.3025   -61.261419     38.03594     38.03594     38.03594            0            0            0   0.78598131 
   17000    54696.058    310.74086    1892.1573    1851.5927   -1304.8639    546.72874     2056.076   -1603.4443    2731.8778    -3002.072    526.83065    509.14574     661.2317            0    1697.2081   -4130.5055   -61.633026    37.959342    37.959342    37.959342            0            0            0   0.79074902 
   18000    55023.841    312.20131   -395.84016     1860.295   -1268.6867    591.60823    273.95985   -1616.0842    2726.7922   -3019.0409    556.30568    535.18993    658.85852            0    1750.3541   -4129.7488   -61.265872    38.035019    38.035019    38.035019            0            0            0   0.78603844 
   19000     54881.34    319.90495    460.80157    1906.1982   -1278.7722    627.42605    996.24612   -1629.8657    2720.3668   -3040.8466    546.07653    521.06143    694.93647            0    1762.0744   -4131.3477    -61.42495    38.002156    38.002156    38.002156            0            0            0   0.78807941 
   20000    54799.986    309.60099    575.95222    1844.8006   -1236.6632    608.13738    1068.4393   -1626.0484    2738.3157    -3018.012    536.05263    557.38107    687.91508            0    1781.3488   -4130.2793   -61.516139    37.983369    37.983369    37.983369            0            0            0   0.78924936 
   21000    54913.473    302.73303    203.67952    1803.8769   -1330.4639    473.41304    636.53115   -1624.6141    2729.0723   -3026.9762    555.26978    491.09219    650.15035            0    1696.5123   -4131.4344   -61.389007    38.009571    38.009571    38.009571            0            0            0   0.78761826 
   22000    54952.638    317.41719    1750.4374    1891.3745   -1367.4741     523.9004    1926.7497   -1583.0366    2637.4923   -3076.3456     540.6212    540.93499    627.31531            0    1708.8715   -4130.8013   -61.345254    38.018605    38.018605    38.018605            0            0            0   0.78705692 
   23000    54913.178     307.3212    120.74766    1831.2162   -1352.9643    478.25189    574.95294   -1645.2483    2728.8921   -3047.7582    527.45185    490.47126    676.87082            0    1694.7939    -4131.402   -61.389337    38.009503    38.009503    38.009503            0            0            0   0.78762249 
   24000    55246.527    304.21035    227.50911    1812.6797   -1356.2636    456.41613    639.72339   -1631.8459    2688.5852   -3073.8134    538.69942    513.05137    665.79902            0    1717.5498   -4130.5527   -61.018923     38.08626     38.08626     38.08626            0            0            0    0.7828701 
   25000    54968.804    319.98948     242.6067    1906.7019   -1451.1159    455.58599    650.07496   -1630.3699    2603.1857   -3158.2026    572.29196    501.69388    633.10083            0    1707.0867   -4131.0183   -61.327213    38.022333    38.022333    38.022333            0            0            0   0.78682545 
   26000    54008.201    308.84168   -140.54488    1840.2762   -1472.1692    368.10695    257.40619   -1683.1194    2642.4952   -3170.0749    552.00088    495.97184    649.93291            0    1697.9056   -4129.4507   -62.417994    37.799545    37.799545    37.799545            0            0            0   0.80082012 
   27000    54293.796    313.35085    266.48089    1867.1447   -1412.3121    454.83255    665.83727   -1624.7368    2607.2892   -3147.0263    574.23191    497.13647     663.3458            0    1734.7142   -4129.5787   -62.089664    37.866056    37.866056    37.866056            0            0            0   0.79660766 
   28000     54318.26    308.12182    33.900401    1835.9868   -1397.2548    438.73194    465.58703   -1636.7181    2646.4044   -3122.1163    560.05627    506.93245    657.87274            0    1724.8615   -4131.8026     -62.0617    37.871742    37.871742    37.871742            0            0            0   0.79624888 
   29000    53812.092    305.17019    1080.8958    1818.3991   -1494.0935    324.30561    1172.5863   -1679.2936    2657.8914   -3152.5969    526.95779    509.83674    621.70893            0    1658.5035   -4131.1947   -62.645466    37.753738    37.753738    37.753738            0            0            0   0.80373857 
   30000    54476.958    322.23391    1134.5435    1920.0756   -1454.2544    465.82118    1367.2053   -1691.0396    2672.2808    -3150.195    554.92507    493.09927    647.91619            0    1695.9405   -4131.4361   -61.880907    37.908589    37.908589    37.908589            0            0            0   0.79392931 
   31000    53822.579    306.28782    621.81753    1825.0587   -1488.0008    337.05782    825.15169   -1665.6882    2588.5364   -3208.9108    579.31479    494.62511    646.97008            0      1720.91    -4131.759    -62.63326     37.75619     37.75619     37.75619            0            0            0   0.80358198 
   32000      53226.9    315.12938    705.41848    1877.7423   -1469.6028    408.13956    955.72752   -1685.0099    2607.8106    -3210.002    545.26533    536.97888    658.15505            0    1740.3993   -4132.8027   -63.334209    37.616385    37.616385    37.616385            0            0            0   0.81257511 
   33000    54681.894    315.90256   -101.47447    1882.3494   -1397.3318     485.0176    404.09381   -1644.9832    2645.7714   -3131.5121    563.34945    525.22071    645.61017            0    1734.1803   -4132.3003   -61.648991    37.956065    37.956065    37.956065            0            0            0   0.79095384 
   34000    54404.089    307.35507     899.5434     1831.418   -1516.9706    314.44743    1028.1702   -1636.4017    2559.5902   -3208.0255     558.9357    499.76554    632.35366            0    1691.0549   -4131.2139   -61.963791    37.891679    37.891679    37.891679            0            0            0   0.79499271 
   35000    54050.257    308.42287    127.84661    1837.7806   -1455.9489     381.8317    482.60903   -1626.4503    2570.8936   -3187.8717    563.07721     497.9828     670.8627            0    1731.9227   -4132.3149   -62.369427    37.809354    37.809354    37.809354            0            0            0     0.800197 
   36000    53973.176    312.53541   -849.16301    1862.2858   -1464.1879    398.09782   -270.31525   -1677.1899    2589.2081   -3219.6693     560.2407    513.62431    681.61638            0    1755.4814   -4131.6876   -62.458499    37.791372    37.791372    37.791372            0            0            0   0.80133979 
   37000    53750.481    316.05455    584.77825     1883.255   -1450.2736    432.98144    891.38656   -1660.1884    2598.8611   -3192.3014    560.12233    534.28303    647.62241            0    1742.0278   -4130.9741   -62.717272    37.739324    37.739324    37.739324            0            0            0   0.80465985 
   38000    53791.596    308.41084     1206.291     1837.709    -1542.357    295.35202    1241.6816   -1705.8774    2654.1788   -3185.0424    525.83854    484.15349    632.69345            0    1642.6855   -4133.3437   -62.669336    37.748944    37.748944    37.748944            0            0            0   0.80404482 
   39000    54479.218     305.8089    21.943888    1822.2049   -1375.1301    447.07487    464.50981   -1644.4582    2639.6144   -3137.2512    571.02244    547.73815    643.36054            0    1762.1211   -4132.4074    -61.87834    37.909113    37.909113    37.909113            0            0            0   0.79389638 
   40000    53866.175    316.12374   -170.56078    1883.6673   -1395.2613    488.40606    354.41643   -1677.4045    2640.6908   -3167.8647    588.04423    529.60938    654.94981            0    1772.6034    -4131.151   -62.582569    37.766382    37.766382    37.766382            0            0            0    0.8029316 
   41000    54270.141    305.96204    645.68808    1823.1174   -1459.2609    363.85656    874.90211   -1649.7847    2612.2218   -3168.8953    563.39362    520.31939    625.92141            0    1709.6344   -4131.3323   -62.116727    37.860556    37.860556    37.860556            0            0            0   0.79695488 
   42000    54450.011    319.34883   -809.29223    1902.8845   -1412.6136     490.2709   -152.38609   -1671.9647     2630.615   -3172.4822    582.49081    509.78566    667.59213            0    1759.8686   -4131.1325   -61.911531    37.902337    37.902337    37.902337            0            0            0   0.79432222 
   43000    53746.023    312.94764    627.08593    1864.7421    -1432.187    432.55514    924.08429    -1647.129    2590.2774   -3186.9595    581.21759    499.87429    673.68066            0    1754.7725   -4130.1079   -62.722475    37.738281    37.738281    37.738281            0            0            0   0.80472659 
   44000    53249.864    307.69396    1605.6941    1833.4373   -1502.2418    331.19553     1578.169   -1687.5287    2616.4067   -3202.6778    561.51679      519.416    619.50324            0     1700.436   -4131.5558   -63.306895    37.621794    37.621794    37.621794            0            0            0   0.81222468 
   45000    53181.182    314.42214    325.56095    1873.5281   -1543.3869    330.14123    582.64402   -1704.6278    2608.4626   -3228.6345    561.90102    474.38795    648.95866            0    1685.2476   -4132.4694   -63.388654    37.605612    37.605612    37.605612            0            0            0   0.81327365 
   46000    54878.225    307.77697   -827.89836     1833.932   -1439.5322    394.39974   -268.20261   -1631.4246    2582.0658   -3180.6565    581.45987    516.96441    642.69996            0    1741.1242   -4131.2977   -61.428437    38.001437    38.001437    38.001437            0            0            0   0.78812414 
   47000    53506.656    304.03396    1045.7542    1811.6287   -1556.6357    254.99293    1071.0365   -1698.5658    2596.3897   -3235.6328     558.3921    492.82735    627.77756            0     1678.997   -4133.4566    -63.00307    37.682173    37.682173    37.682173            0            0            0   0.80832662 
   48000    54311.145    311.09384   -823.86608     1853.696   -1424.1764     429.5196   -223.04193   -1663.4849    2607.3354   -3188.6126    574.56379    540.23068    649.64171            0    1764.4362   -4132.4631   -62.069831    37.870088    37.870088    37.870088            0            0            0    0.7963532 
   49000    54536.587    317.23982    615.28965    1890.3176   -1472.7959    417.52175    906.89863   -1633.4334    2575.5835   -3189.9972     553.1143    527.29042     636.7966            0    1717.2013   -4132.1473   -61.813249    37.922415    37.922415    37.922415            0            0            0   0.79306126 
   50000    53705.752    312.95175   -138.28409    1864.7666    -1457.324    407.44266    299.13257   -1700.0938    2620.6478   -3211.0681    568.51202    518.58247     666.6496            0    1753.7441    -4131.622   -62.769507    37.728853    37.728853    37.728853            0            0            0   0.80533002 
   50519    54561.576    319.53271   -27.356728    1903.9801    -1424.758    479.22215    457.45373   -1609.0491    2592.6546   -3146.6894      583.274    494.37131    644.28613            0    1721.9314   -4130.2949   -61.784938    37.928206    37.928206    37.928206            0            0            0   0.79269803 
Loop time of 99.7492 on 48 procs for 50000 steps with 2000 atoms

Performance: 43.309 ns/day, 0.554 hours/ns, 501.257 timesteps/s
42.0% CPU use with 48 MPI tasks x 1 OpenMP threads

MPI task timing breakdown:
Section |  min time  |  avg time  |  max time  |%varavg| %total
---------------------------------------------------------------
Pair    | 10.903     | 13.798     | 16.959     |  40.7 | 13.83
Bond    | 0.52433    | 0.63789    | 0.72934    |   5.4 |  0.64
Kspace  | 13.769     | 18.923     | 22.24      |  43.8 | 18.97
Neigh   | 2.9365     | 3.4985     | 3.9242     |  18.0 |  3.51
Comm    | 31.35      | 37.171     | 43.677     |  49.0 | 37.26
Output  | 0.055301   | 0.056138   | 0.064408   |   0.5 |  0.06
Modify  | 17.701     | 20.64      | 23.8       |  37.1 | 20.69
Other   |            | 5.024      |            |       |  5.04

Nlocal:    41.6667 ave 57 max 29 min
Histogram: 4 2 10 5 5 7 9 2 1 3
Nghost:    2392.67 ave 2441 max 2342 min
Histogram: 1 2 4 11 4 8 8 4 4 2
Neighs:    10754.5 ave 15279 max 7676 min
Histogram: 5 6 7 6 5 10 3 3 1 2

Total # of neighbors = 516214
Ave neighs/atom = 258.107
Ave special neighs/atom = 4.8
Neighbor list builds = 4590
Dangerous builds = 0

unfix npt_density

fix reshape_box all deform 1 x final 0.0 37.4495 y final 0.0 37.4495 z final 0.0 37.4495 units box

run 100000
Ewald initialization ...
  using 12-bit tables for long-range coulomb (src/kspace.cpp:332)
  G vector (1/distance) = 0.148802
  estimated absolute RMS force accuracy = 0.0374506
  estimated relative force accuracy = 0.000112781
  KSpace vectors: actual max1d max3d = 128 4 364
                  kxmax kymax kzmax  = 4 4 4
Per MPI rank memory allocation (min/avg/max) = 17.62 | 17.81 | 18.12 Mbytes
Step Volume Temp Press KinEng PotEng TotEng Enthalpy E_vdwl E_coul E_pair E_bond E_angle E_dihed E_impro E_mol E_long E_tail Lx Ly Lz Xy Xz Yz Density 
   50519    54561.576    319.53271   -27.263579    1903.9801   -1424.7771    479.20299    457.50869   -1609.0491     2630.965   -3146.7086      583.274    494.37131    644.28613            0    1721.9314   -4168.6245   -61.784938    37.928206    37.928206    37.928206            0            0            0   0.79269803 
   51000     54551.64    319.53271    97.289105    1903.9801    -1425.092    478.88811    556.28934   -1608.7302    2630.7832   -3146.5726    582.82315    494.37131    644.28613            0    1721.4806   -4168.6256   -61.796192    37.925904    37.925904    37.925904            0            0            0   0.79284242 
   52000    54530.985    319.53271    357.40364    1903.9801   -1425.5746    478.40552    762.64094   -1608.0652    2630.5216   -3146.1714    581.93937    494.37131    644.28613            0    1720.5968   -4168.6279   -61.819598    37.921116    37.921116    37.921116            0            0            0   0.79314272 
   53000    54510.337    319.53271    618.26882    1903.9801   -1425.8431    478.13704    969.64675   -1607.3934    2630.3924   -3145.6311    581.13056    494.37131    644.28613            0     1719.788   -4168.6301   -61.843015    37.916329    37.916329    37.916329            0            0            0   0.79344317 
   54000    54489.693    319.53271    879.15042    1903.9801    -1426.067    477.91311    1176.5531   -1606.7218    2630.2329   -3145.1212    580.39673    494.37131    644.28613            0    1719.0542   -4168.6323   -61.866445    37.911542    37.911542    37.911542            0            0            0   0.79374377 
   55000    54469.054    319.53271     1140.553    1903.9801   -1426.1295     477.8506    1383.8777   -1606.0443     2630.154   -3144.5248    579.73787    494.37131    644.28613            0    1718.3953   -4168.6346   -61.889886    37.906755    37.906755    37.906755            0            0            0   0.79404452 
   56000    54448.421    319.53271    1401.6655    1903.9801   -1426.2178     477.7623     1590.789   -1605.3689    2629.9764   -3144.0293    579.15399    494.37131    644.28613            0    1717.8114   -4168.6368    -61.91334    37.901968    37.901968    37.901968            0            0            0   0.79434542 
   57000    54427.793    319.53271    1662.8758    1903.9801   -1426.2402    477.73989    1797.6867   -1604.6867     2629.783   -3143.5428    578.64508    494.37131    644.28613            0    1717.3025   -4168.6391   -61.936805    37.897181    37.897181    37.897181            0            0            0   0.79464648 
   58000     54407.17    319.53271     1924.112    1903.9801   -1426.2153    477.76481    2004.4953   -1604.0031    2629.5605   -3143.0839    578.21114    494.37131    644.28613            0    1716.8686   -4168.6413   -61.960282    37.892394    37.892394    37.892394            0            0            0   0.79494769 
   59000    54386.552    319.53271    2186.2129    1903.9801    -1425.951    478.02915    2212.0722   -1603.3123    2629.4952   -3142.4606    577.85218    494.37131    644.28613            0    1716.5096   -4168.6435    -61.98377    37.887607    37.887607    37.887607            0            0            0   0.79524905 
   60000     54365.94    319.53271    2447.7626    1903.9801   -1425.7693    478.21082     2418.972   -1602.6189    2629.2697   -3141.9949     577.5682    494.37131    644.28613            0    1716.2256   -4168.6458   -62.007271     37.88282     37.88282     37.88282            0            0            0   0.79555056 
   61000    54345.333    319.53271     2709.432    1903.9801   -1425.5182    478.46191    2625.8789   -1601.9219     2629.035   -3141.5349    577.35919    494.37131    644.28613            0    1716.0166    -4168.648   -62.030784    37.878033    37.878033    37.878033            0            0            0   0.79585223 
   62000    54324.731    319.53271    2971.1449    1903.9801   -1425.2145    478.76563     2832.716   -1601.2205    2628.7737   -3141.0971    577.22515    494.37131    644.28613            0    1715.8826   -4168.6503   -62.054308    37.873246    37.873246    37.873246            0            0            0   0.79615405 
   63000    54304.134    319.53271    3233.3835    1903.9801   -1424.7493    479.23084    3039.9738   -1600.5145    2628.5941   -3140.5728    577.16609    494.37131    644.28613            0    1715.8235   -4168.6525   -62.077845    37.868459    37.868459    37.868459            0            0            0   0.79645602 
   64000    54283.542    319.53271    3495.7039    1903.9801   -1424.2236    479.75657    3247.1997   -1599.8051    2628.3968    -3140.063    577.18201    494.37131    644.28613            0    1715.8394   -4168.6548   -62.101393    37.863672    37.863672    37.863672            0            0            0   0.79675814 
   65000    54262.956    319.53271    3758.2278    1903.9801   -1423.6101       480.37     3454.517    -1599.093    2628.2095   -3139.5405     577.2729    494.37131    644.28613            0    1715.9303    -4168.657   -62.124953    37.858885    37.858885    37.858885            0            0            0   0.79706042 
   66000    54242.375    319.53271    4020.2158    1903.9801   -1423.0772    480.90292    3661.1726   -1598.3819    2627.8678   -3139.1734    577.43876    494.37131    644.28613            0    1716.0962   -4168.6592   -62.148525    37.854098    37.854098    37.854098            0            0            0   0.79736284 
   67000    54221.799    319.53271    4282.8889    1903.9801   -1422.3449    481.63521    3868.4123   -1597.6615     2627.641    -3138.682     577.6796    494.37131    644.28613            0     1716.337   -4168.6615   -62.172109    37.849311    37.849311    37.849311            0            0            0   0.79766543 
   68000    54201.228    319.53271    4545.2042    1903.9801   -1421.6508    482.32935    4075.1738    -1596.937    2627.2971   -3138.3036    577.99541    494.37131    644.28613            0    1716.6528   -4168.6637   -62.195705    37.844523    37.844523    37.844523            0            0            0   0.79796816 
   69000    54180.662    319.53271    4807.9355    1903.9801   -1420.8242    483.15593    4282.2394   -1596.2172    2627.0153   -3137.8678     578.3862    494.37131    644.28613            0    1717.0436    -4168.666   -62.219313    37.839736    37.839736    37.839736            0            0            0   0.79827105 
   70000    54160.102    319.53271    5071.9427    1903.9801   -1419.6657    484.31442    4490.4875   -1595.4883    2626.9814   -3137.1751    578.85196    494.37131    644.28613            0    1717.5094   -4168.6682   -62.242933    37.834949    37.834949    37.834949            0            0            0   0.79857409 
   71000    54139.547    319.53271    5335.2121    1903.9801   -1418.6326    485.34751    4697.8696   -1594.7588    2626.7465   -3136.6828    579.39269    494.37131    644.28613            0    1718.0501   -4168.6705   -62.266565    37.830162    37.830162    37.830162            0            0            0   0.79887729 
   72000    54118.997    319.53271    5598.7491    1903.9801   -1417.4958    486.48438    4905.4094   -1594.0225    2626.5336   -3136.1616    580.00841    494.37131    644.28613            0    1718.6658   -4168.6727   -62.290208    37.825375    37.825375    37.825375            0            0            0   0.79918064 
   73000    54098.452    319.53271    5862.6662    1903.9801   -1416.2312    487.74898    5113.2192   -1593.2825    2626.3697   -3135.5877    580.69909    494.37131    644.28613            0    1719.3565   -4168.6749   -62.313864    37.820588    37.820588    37.820588            0            0            0   0.79948414 
   74000    54077.912    319.53271    6126.6059    1903.9801   -1414.9204     489.0597    5320.9353   -1592.5415     2626.176   -3135.0426    581.46475    494.37131    644.28613            0    1720.1222   -4168.6772   -62.337532    37.815801    37.815801    37.815801            0            0            0   0.79978779 
   75000    54057.378    319.53271    6391.1257    1903.9801    -1413.437    490.54319     5529.124   -1591.7965    2626.0761   -3134.3998    582.30539    494.37131    644.28613            0    1720.9628   -4168.6794   -62.361212    37.811014    37.811014    37.811014            0            0            0    0.8000916 
   76000    54036.849    319.53271    6655.4109    1903.9801   -1411.9631      492.017    5736.9601   -1591.0456    2625.8857   -3133.8416      583.221    494.37131    644.28613            0    1721.8784   -4168.6817   -62.384903    37.806227    37.806227    37.806227            0            0            0   0.80039557 
   77000    54016.325    319.53271    6919.5749    1903.9801   -1410.4745    493.50559    5944.5577   -1590.2916    2625.6319   -3133.3436    584.21158    494.37131    644.28613            0     1722.869   -4168.6839   -62.408607     37.80144     37.80144     37.80144            0            0            0   0.80069968 
   78000    53995.806    319.53271    7183.9257    1903.9801   -1408.9024    495.07773    6152.2284   -1589.5344    2625.3835    -3132.837    585.27714    494.37131    644.28613            0    1723.9346   -4168.6861   -62.432323    37.796653    37.796653    37.796653            0            0            0   0.80100396 
   79000    53975.292    319.53271    7448.7184    1903.9801   -1407.1872    496.79295    6360.2325   -1588.7688    2625.1949   -3132.2623    586.41768    494.37131    644.28613            0    1725.0751   -4168.6884   -62.456051    37.791866    37.791866    37.791866            0            0            0   0.80130838 
   80000    53954.784    319.53271    7713.5666    1903.9801   -1405.4181      498.562    6568.1761   -1588.0017    2624.9836   -3131.7088    587.63318    494.37131    644.28613            0    1726.2906   -4168.6906    -62.47979    37.787079    37.787079    37.787079            0            0            0   0.80161296 
   81000    53934.281    319.53271    7979.4261    1903.9801   -1403.3785    500.60164     6777.028   -1587.2274    2624.9607   -3130.9596    588.92367    494.37131    644.28613            0    1727.5811   -4168.6929   -62.503542    37.782292    37.782292    37.782292            0            0            0    0.8019177 
   82000    53913.783    319.53271    8244.5713    1903.9801   -1401.4606    502.51958    6985.0381   -1586.4578    2624.7458   -3130.4071    590.28913    494.37131    644.28613            0    1728.9466   -4168.6951   -62.527306    37.777505    37.777505    37.777505            0            0            0   0.80222259 
   83000     53893.29    319.53271    8509.6937    1903.9801   -1399.5054    504.47471    7192.9098   -1585.6834    2624.4883   -3129.8924    591.72956    494.37131    644.28613            0     1730.387   -4168.6974   -62.551082    37.772718    37.772718    37.772718            0            0            0   0.80252763 
   84000    53872.802    319.53271    8775.3506    1903.9801   -1397.3876    506.59258    7401.2062   -1584.9027    2624.3124     -3129.29    593.24497    494.37131    644.28613            0    1731.9024   -4168.6996    -62.57487    37.767931    37.767931    37.767931            0            0            0   0.80283283 
   85000     53852.32    319.53271    9040.9164    1903.9801   -1395.2497    508.73043     7609.293   -1584.1218    2624.0811   -3128.7425    594.83535    494.37131    644.28613            0    1733.4928   -4168.7018    -62.59867    37.763143    37.763143    37.763143            0            0            0   0.80313818 
   86000    53831.842    319.53271    9306.9173    1903.9801   -1392.9728    511.00737    7817.7026    -1583.338    2623.9112   -3128.1309     596.5007    494.37131    644.28613            0    1735.1581   -4168.7041   -62.622482    37.758356    37.758356    37.758356            0            0            0   0.80344369 
   87000     53811.37    319.53271    9572.6408    1903.9801   -1390.7142    513.26589    8025.7178   -1582.5469    2623.6405   -3127.6127    598.24104    494.37131    644.28613            0    1736.8985   -4168.7063   -62.646306    37.753569    37.753569    37.753569            0            0            0   0.80374935 
   88000    53790.904    319.53271    9838.4377    1903.9801   -1388.3966     515.5835    8233.6918   -1581.7505    2623.3487   -3127.1104    600.05634    494.37131    644.28613            0    1738.7138   -4168.7086   -62.670142    37.748782    37.748782    37.748782            0            0            0   0.80405517 
   89000    53770.442    319.53271     10105.04    1903.9801    -1385.858     518.1221    8442.3602   -1580.9529    2623.2017   -3126.4621    601.94662    494.37131    644.28613            0    1740.6041   -4168.7108   -62.693991    37.743995    37.743995    37.743995            0            0            0   0.80436114 
   90000    53749.985    319.53271    10371.377    1903.9801   -1383.3377    520.64242    8650.6447   -1580.1536    2622.9596    -3125.907    603.91188    494.37131    644.28613            0    1742.5693    -4168.713   -62.717851    37.739208    37.739208    37.739208            0            0            0   0.80466727 
   91000    53729.534    319.53271    10638.254    1903.9801    -1380.654    523.32613    8859.3571   -1579.3482       2622.8   -3125.2636    605.95211    494.37131    644.28613            0    1744.6095   -4168.7153   -62.741724    37.734421    37.734421    37.734421            0            0            0   0.80497355 
   92000    53709.088    319.53271    10904.883    1903.9801   -1377.9839    525.99623    9067.7035   -1578.5394    2622.5483   -3124.7087    608.06731    494.37131    644.28613            0    1746.7247   -4168.7175   -62.765608    37.729634    37.729634    37.729634            0            0            0   0.80527999 
   93000    53688.647    319.53271    11171.502    1903.9801    -1375.273    528.70713    9275.9242   -1577.7242     2622.256   -3124.1879    610.25749    494.37131    644.28613            0    1748.9149   -4168.7198   -62.789505    37.724847    37.724847    37.724847            0            0            0   0.80558659 
   94000    53668.211    319.53271    11439.017    1903.9801   -1372.3207    531.65943    9484.9305   -1576.9067    2622.1279   -3123.5008    612.52265    494.37131    644.28613            0    1751.1801    -4168.722   -62.813414     37.72006     37.72006     37.72006            0            0            0   0.80589334 
   95000    53647.781    319.53271    11706.719    1903.9801   -1369.2839    534.69627    9694.0083   -1576.0825    2622.0026   -3122.8041    614.86277    494.37131    644.28613            0    1753.5202   -4168.7243   -62.837335    37.715273    37.715273    37.715273            0            0            0   0.80620025 
   96000    53627.355    319.53271     11974.41    1903.9801   -1366.2069    537.77324     9902.959   -1575.2531    2621.8374   -3122.1422    617.27788    494.37131    644.28613            0    1755.9353   -4168.7265   -62.861268    37.710486    37.710486    37.710486            0            0            0   0.80650731 
   97000    53606.935    319.53271    12241.642    1903.9801   -1363.1932    540.78697    10111.329   -1574.4261    2621.5363   -3121.6186    619.76796    494.37131    644.28613            0    1758.4254   -4168.7287   -62.885214    37.705699    37.705699    37.705699            0            0            0   0.80681453 
   98000     53586.52    319.53271     12509.57    1903.9801   -1359.9823    543.99782    10320.283   -1573.5952    2621.3534   -3120.9728    622.33301    494.37131    644.28613            0    1760.9904    -4168.731   -62.909171    37.700912    37.700912    37.700912            0            0            0    0.8071219 
   99000    53566.111    319.53271    12777.286    1903.9801   -1356.7754     547.2047    10528.907   -1572.7563    2621.0836   -3120.4059    624.97304    494.37131    644.28613            0    1763.6305   -4168.7332   -62.933141    37.696125    37.696125    37.696125            0            0            0   0.80742943 
  100000    53545.706    319.53271    13045.743    1903.9801   -1353.3635    550.61664    10738.157   -1571.9175     2620.944    -3119.709    627.68804    494.37131    644.28613            0    1766.3455   -4168.7355   -62.957123    37.691338    37.691338    37.691338            0            0            0   0.80773712 
  101000    53525.306    319.53271    13313.967    1903.9801    -1349.959    554.02113    10947.059   -1571.0693    2620.7125   -3119.0945    630.47801    494.37131    644.28613            0    1769.1354   -4168.7377   -62.981117     37.68655     37.68655     37.68655            0            0            0   0.80804496 
  102000    53504.912    319.53271     13582.32    1903.9801   -1346.4853    557.49488    11155.973   -1570.2202    2620.4744   -3118.4857    633.34297    494.37131    644.28613            0    1772.0004   -4168.7399   -63.005123    37.681763    37.681763    37.681763            0            0            0   0.80835296 
  103000    53484.523    319.53271     13850.84    1903.9801   -1342.9342    561.04596    11364.935   -1569.3709    2620.2386   -3117.8745    636.28289    494.37131    644.28613            0    1774.9403   -4168.7422   -63.029142    37.676976    37.676976    37.676976            0            0            0   0.80866111 
  104000    53464.139    319.53271    14120.023    1903.9801   -1339.1926     564.7875    11574.446   -1568.5144     2620.111   -3117.1479    639.29779    494.37131    644.28613            0    1777.9552   -4168.7444   -63.053172    37.672189    37.672189    37.672189            0            0            0   0.80896943 
  105000    53443.761    319.53271    14389.081    1903.9801    -1335.438    568.54211    11783.714   -1567.6558    2619.9194   -3116.4831    642.38767    494.37131    644.28613            0    1781.0451   -4168.7467   -63.077215    37.667402    37.667402    37.667402            0            0            0    0.8092779 
  106000    53423.387    319.53271    14657.795    1903.9801   -1331.7189    572.26127     11992.52    -1566.795    2619.6151   -3115.9288    645.55252    494.37131    644.28613            0      1784.21   -4168.7489    -63.10127    37.662615    37.662615    37.662615            0            0            0   0.80958652 
  107000    53403.019    319.53271    14927.096    1903.9801   -1327.8261    576.15405    12201.798   -1565.9266    2619.4019   -3115.2759    648.79234    494.37131    644.28613            0    1787.4498   -4168.7511   -63.125338    37.657828    37.657828    37.657828            0            0            0    0.8098953 
  108000    53382.655    319.53271    15196.719    1903.9801   -1323.8198    580.16037    12411.281   -1565.0541    2619.2231   -3114.5843    652.10714    494.37131    644.28613            0    1790.7646   -4168.7534   -63.149417    37.653041    37.653041    37.653041            0            0            0   0.81020424 
  109000    53362.297    319.53271    15466.419    1903.9801   -1319.7564    584.22372    12620.722   -1564.1805    2619.0254   -3113.9108    655.49692    494.37131    644.28613            0    1794.1544   -4168.7556   -63.173509    37.648254    37.648254    37.648254            0            0            0   0.81051334 
  110000    53341.945    319.53271    15736.925    1903.9801    -1315.471    588.50909    12830.854   -1563.3001    2618.9678   -3113.0901    658.96166    494.37131    644.28613            0    1797.6191   -4168.7579   -63.197613    37.643467    37.643467    37.643467            0            0            0    0.8108226 
  111000    53321.597    319.53271    16006.206    1903.9801    -1311.415    592.56515    13039.644   -1562.4143    2618.6006   -3112.5738    662.50139    494.37131    644.28613            0    1801.1588   -4168.7601   -63.221729     37.63868     37.63868     37.63868            0            0            0   0.81113201 
  112000    53301.255    319.53271    16276.233    1903.9801   -1307.1537    596.82645    13249.061   -1561.5285    2618.3636   -3111.9272    666.11609    494.37131    644.28613            0    1804.7735   -4168.7624   -63.245858    37.633893    37.633893    37.633893            0            0            0   0.81144158 
  113000    53280.917    319.53271     16546.47    1903.9801   -1302.8034    601.17675     13458.57   -1560.6363    2618.1343   -3111.2666    669.80576    494.37131    644.28613            0    1808.4632   -4168.7646   -63.269999    37.629106    37.629106    37.629106            0            0            0    0.8117513 
  114000    53260.585    319.53271    16817.608    1903.9801   -1298.2119    605.76822    13668.862   -1559.7398    2618.0669   -3110.4398    673.57041    494.37131    644.28613            0    1812.2278   -4168.7668   -63.294152    37.624319    37.624319    37.624319            0            0            0   0.81206119 
  115000    53240.258    319.53271    17088.969    1903.9801   -1293.5309    610.44927    13879.257    -1558.843    2618.0138   -3109.5983    677.41003    494.37131    644.28613            0    1816.0675   -4168.7691   -63.318318    37.619532    37.619532    37.619532            0            0            0   0.81237123 
  116000    53219.936    319.53271    17359.539    1903.9801   -1288.9827    614.99745    14088.746   -1557.9407    2617.7473   -3108.9647    681.32462    494.37131    644.28613            0    1819.9821   -4168.7713   -63.342496    37.614745    37.614745    37.614745            0            0            0   0.81268143 
  117000     53199.62    319.53271    17630.881    1903.9801   -1284.2223    619.75787    14298.887   -1557.0344    2617.6141   -3108.1939     685.3142    494.37131    644.28613            0    1823.9716   -4168.7736   -63.366686    37.609958    37.609958    37.609958            0            0            0   0.81299179 
  118000    53179.308    319.53271    17902.371    1903.9801   -1279.3871    624.59308    14509.057   -1556.1226    2617.4752   -3107.4232    689.37874    494.37131    644.28613            0    1828.0362   -4168.7758   -63.390888     37.60517     37.60517     37.60517            0            0            0   0.81330231 
  119000    53159.002    319.53271    18173.841    1903.9801   -1274.5144    629.46569    14719.091   -1555.2061     2617.294   -3106.6901    693.51826    494.37131    644.28613            0    1832.1757    -4168.778   -63.415103    37.600383    37.600383    37.600383            0            0            0   0.81361298 
  120000    53138.701    319.53271    18445.635    1903.9801   -1269.5281    634.45199     14929.33   -1554.2844    2617.1463   -3105.9183    697.73276    494.37131    644.28613            0    1836.3902   -4168.7803    -63.43933    37.595596    37.595596    37.595596            0            0            0   0.81392381 
  121000    53118.405    319.53271    18717.631    1903.9801   -1264.4564    639.52374    15139.651   -1553.3595     2617.006   -3105.1361    702.02223    494.37131    644.28613            0    1840.6797   -4168.7825   -63.463569    37.590809    37.590809    37.590809            0            0            0    0.8142348 
  122000    53098.114    319.53271    18989.374    1903.9801   -1259.3993    644.58081    15349.602   -1552.4316     2616.773   -3104.4434    706.38667    494.37131    644.28613            0    1845.0441   -4168.7848   -63.487821    37.586022    37.586022    37.586022            0            0            0   0.81454595 
  123000    53077.829    319.53271    19261.208    1903.9801   -1254.2819    649.69823    15559.523   -1551.5021    2616.5237   -3103.7654    710.82609    494.37131    644.28613            0    1849.4835    -4168.787   -63.512085    37.581235    37.581235    37.581235            0            0            0   0.81485726 
  124000    53057.548    319.53271    19533.673    1903.9801   -1248.9824    654.99771    15769.957   -1550.5661     2616.375   -3102.9804    715.34049    494.37131    644.28613            0    1853.9979   -4168.7892   -63.536362    37.576448    37.576448    37.576448            0            0            0   0.81516873 
  125000    53037.273    319.53271    19805.842    1903.9801   -1243.7064    660.27369    15979.978   -1549.6247    2616.1224   -3102.2937    719.92985    494.37131    644.28613            0    1858.5873   -4168.7915   -63.560651    37.571661    37.571661    37.571661            0            0            0   0.81548035 
  126000    53017.003    319.53271    20078.202    1903.9801   -1238.3484    665.63174     16190.07    -1548.683    2615.8767      -3101.6     724.5942    494.37131    644.28613            0    1863.2516   -4168.7937   -63.584952    37.566874    37.566874    37.566874            0            0            0   0.81579214 
  127000    52996.738    319.53271    20350.641    1903.9801   -1232.9321    671.04803     16400.12   -1547.7379    2615.6108   -3100.9231    729.33352    494.37131    644.28613            0     1867.991    -4168.796   -63.609266    37.562087    37.562087    37.562087            0            0            0   0.81610408 
  128000    52976.478    319.53271    20622.907    1903.9801   -1227.5114    676.46871    16609.883   -1546.7867    2615.2683   -3100.3167    734.14781    494.37131    644.28613            0    1872.8052   -4168.7982   -63.633592      37.5573      37.5573      37.5573            0            0            0   0.81641618 
  129000    52956.224    319.53271    20896.272    1903.9801    -1221.806    682.17414     16820.62   -1545.8284    2615.1283   -3099.5005    739.03708    494.37131    644.28613            0    1877.6945   -4168.8005    -63.65793    37.552513    37.552513    37.552513            0            0            0   0.81672844 
  130000    52935.974    319.53271    21169.083    1903.9801   -1216.1839     687.7962    17030.686   -1544.8718    2614.8318   -3098.8427    744.00132    494.37131    644.28613            0    1882.6588   -4168.8027   -63.682281    37.547726    37.547726    37.547726            0            0            0   0.81704086 
  131000     52915.73    319.53271    21442.571    1903.9801   -1210.3692    693.61091    17241.307   -1543.9063     2614.644   -3098.0672    749.04054    494.37131    644.28613            0     1887.698   -4168.8049   -63.706644    37.542939    37.542939    37.542939            0            0            0   0.81735344 
  132000    52895.491    319.53271    21716.478    1903.9801   -1204.4226    699.55749    17452.224   -1542.9407    2614.5131   -3097.2348    754.15473    494.37131    644.28613            0    1892.8122   -4168.8072    -63.73102    37.538152    37.538152    37.538152            0            0            0   0.81766618 
  133000    52875.257    319.53271    21990.182    1903.9801   -1198.4792    705.50092    17662.821   -1541.9701     2614.299   -3096.4805    759.34389    494.37131    644.28613            0    1898.0013   -4168.8094   -63.755408    37.533365    37.533365    37.533365            0            0            0   0.81797908 
  134000    52855.028    319.53271    22264.412    1903.9801   -1192.3791      711.601     17873.82   -1540.9959     2614.163   -3095.6446    764.60803    494.37131    644.28613            0    1903.2655   -4168.8117   -63.779809    37.528577    37.528577    37.528577            0            0            0   0.81829214 
  135000    52834.804    319.53271    22538.385    1903.9801   -1186.2937    717.68647    18084.446   -1540.0161    2613.9318   -3094.8982    769.94715    494.37131    644.28613            0    1908.6046   -4168.8139   -63.804222     37.52379     37.52379     37.52379            0            0            0   0.81860536 
  136000    52814.586    319.53271    22812.754    1903.9801   -1180.0799     723.9002    18295.346   -1539.0319    2613.7495   -3094.0986    775.36124    494.37131    644.28613            0    1914.0187   -4168.8161   -63.828647    37.519003    37.519003    37.519003            0            0            0   0.81891874 
  137000    52794.373    319.53271    23087.149    1903.9801   -1173.8174    730.16271    18506.154   -1538.0396    2613.5328   -3093.3252     780.8503    494.37131    644.28613            0    1919.5077   -4168.8184   -63.853085    37.514216    37.514216    37.514216            0            0            0   0.81923228 
  138000    52774.165    319.53271    23361.435    1903.9801   -1167.5389    736.44126    18716.735   -1537.0457    2613.2557   -3092.6107    786.41434    494.37131    644.28613            0    1925.0718   -4168.8206   -63.877536    37.509429    37.509429    37.509429            0            0            0   0.81954597 
  139000    52753.962    319.53271    23636.444    1903.9801   -1161.0618    742.91829     18927.91   -1536.0511    2613.1014   -3091.7726    792.05336    494.37131    644.28613            0    1930.7108   -4168.8229   -63.901999    37.504642    37.504642    37.504642            0            0            0   0.81985983 
  140000    52733.764    319.53271    23911.826    1903.9801   -1154.4596     749.5205    19139.337   -1535.0478    2612.9885   -3090.8844    797.76735    494.37131    644.28613            0    1936.4248   -4168.8251   -63.926474    37.499855    37.499855    37.499855            0            0            0   0.82017385 
  141000    52713.571    319.53271    24186.515    1903.9801   -1147.9702    756.00995    19349.958   -1534.0444    2612.6878   -3090.1839    803.55631    494.37131    644.28613            0    1942.2137   -4168.8273   -63.950962    37.495068    37.495068    37.495068            0            0            0   0.82048803 
  142000    52693.383    319.53271    24461.758    1903.9801   -1141.3162    762.66397     19561.01   -1533.0322     2612.468   -3089.3938    809.42025    494.37131    644.28613            0    1948.0777   -4168.8296   -63.975463    37.490281    37.490281    37.490281            0            0            0   0.82080237 
  143000    52673.201    319.53271      24737.4    1903.9801   -1134.5346    769.44555    19772.336   -1532.0181    2612.2987   -3088.5512    815.35916    494.37131    644.28613            0    1954.0166   -4168.8318   -63.999975    37.485494    37.485494    37.485494            0            0            0   0.82111687 
  144000    52653.024    319.53271    25012.829    1903.9801    -1127.758    776.22212    19983.332   -1530.9985     2612.044   -3087.7885    821.37305    494.37131    644.28613            0    1960.0305   -4168.8341   -64.024501    37.480707    37.480707    37.480707            0            0            0   0.82143153 
  145000    52632.852    319.53271    25288.506    1903.9801   -1120.8861    783.09399    20194.454   -1529.9748    2611.8057   -3087.0055    827.46191    494.37131    644.28613            0    1966.1193   -4168.8363   -64.049039     37.47592     37.47592     37.47592            0            0            0   0.82174635 
  146000    52612.685    319.53271    25564.354    1903.9801   -1113.9346    790.04559    20405.627   -1528.9447    2611.5655   -3086.2177    833.62575    494.37131    644.28613            0    1972.2832   -4168.8385    -64.07359    37.471133    37.471133    37.471133            0            0            0   0.82206134 
  147000    52592.523    319.53271    25840.711    1903.9801   -1106.8304    797.14969    20617.182   -1527.9096     2611.398   -3085.3524    839.86456    494.37131    644.28613            0     1978.522   -4168.8408   -64.098153    37.466346    37.466346    37.466346            0            0            0   0.82237648 
  148000    52572.367    319.53271      26116.4    1903.9801   -1099.8325    804.14768    20827.958   -1526.8735    2611.0483   -3084.6682    846.17834    494.37131    644.28613            0    1984.8358    -4168.843   -64.122728    37.461559    37.461559    37.461559            0            0            0   0.82269178 
  149000    52552.215    319.53271    26393.052    1903.9801   -1092.5809    811.39926    21039.566   -1525.8283    2610.8681   -3083.8054     852.5671    494.37131    644.28613            0    1991.2245   -4168.8453   -64.147317    37.456772    37.456772    37.456772            0            0            0   0.82300725 
  150000    52532.069    319.53271    26669.557    1903.9801    -1085.323    818.65715    21250.907   -1524.7844    2610.6206   -3083.0113    859.03084    494.37131    644.28613            0    1997.6883   -4168.8475   -64.171917    37.451984    37.451984    37.451984            0            0            0   0.82332288 
  150519    52521.615    319.53271    26813.422    1903.9801   -1081.4614    822.51877      21360.9   -1524.2405    2610.5552   -3082.5339    862.41507    494.37131    644.28613            0    2001.0725   -4168.8487    -64.18469      37.4495      37.4495      37.4495            0            0            0   0.82348675 
Loop time of 144.995 on 48 procs for 100000 steps with 2000 atoms

Performance: 59.588 ns/day, 0.403 hours/ns, 689.678 timesteps/s
44.9% CPU use with 48 MPI tasks x 1 OpenMP threads

MPI task timing breakdown:
Section |  min time  |  avg time  |  max time  |%varavg| %total
---------------------------------------------------------------
Pair    | 18.991     | 26.519     | 38.028     |  90.2 | 18.29
Bond    | 0.71976    | 1.0899     | 1.4139     |  15.0 |  0.75
Kspace  | 27.126     | 34.523     | 44.373     |  85.0 | 23.81
Neigh   | 0.0060462  | 0.0068879  | 0.0078152  |   0.6 |  0.00
Comm    | 57.241     | 67.789     | 81.371     |  70.9 | 46.75
Output  | 0.11271    | 0.12007    | 0.13337    |   1.0 |  0.08
Modify  | 0.45655    | 0.52592    | 0.80614    |  11.1 |  0.36
Other   |            | 14.42      |            |       |  9.95

Nlocal:    41.6667 ave 57 max 28 min
Histogram: 3 2 8 7 6 7 8 3 1 3
Nghost:    2455.83 ave 2502 max 2393 min
Histogram: 1 0 3 10 6 5 8 5 7 3
Neighs:    11149.6 ave 16006 max 7493 min
Histogram: 3 5 7 8 7 9 5 0 1 3

Total # of neighbors = 535181
Ave neighs/atom = 267.591
Ave special neighs/atom = 4.8
Neighbor list builds = 9
Dangerous builds = 0
# >>>>>>>>>  Equilibration run <<<<<<<<<<<<<<<<<<<<<<<<<<<<<<<<<<

fix             NVT_equib all nvt temp ${simulationTemp} ${simulationTemp} 100
fix             NVT_equib all nvt temp 310 ${simulationTemp} 100
fix             NVT_equib all nvt temp 310 310 100

print           "Step Density Temperature Pressure KinEng PotEng TotEng" file Properties_equib_octanolUA_310.txt
Step Density Temperature Pressure KinEng PotEng TotEng
fix             PRINT_equib all print ${printfreq} "$(v_step) $(v_density) $(v_temp) $(v_press) $(v_pe) $(v_ke) $(v_etotal) $(v_enthalpy)" append Properties_equib_octanolUA_310.txt title ""
fix             PRINT_equib all print 1000 "$(v_step) $(v_density) $(v_temp) $(v_press) $(v_pe) $(v_ke) $(v_etotal) $(v_enthalpy)" append Properties_equib_octanolUA_310.txt title ""
# The 'print' and fix print' commands as used above will create a file named 'Properties_equib.txt' which allows you to quickly make plots to test for equilibration


run             ${NVT_equib}
run             1000000
Ewald initialization ...
  using 12-bit tables for long-range coulomb (src/kspace.cpp:332)
  G vector (1/distance) = 0.149129
  estimated absolute RMS force accuracy = 0.0367822
  estimated relative force accuracy = 0.000110768
  KSpace vectors: actual max1d max3d = 128 4 364
                  kxmax kymax kzmax  = 4 4 4
Per MPI rank memory allocation (min/avg/max) = 17.62 | 17.81 | 18.12 Mbytes
Step Volume Temp Press KinEng PotEng TotEng Enthalpy E_vdwl E_coul E_pair E_bond E_angle E_dihed E_impro E_mol E_long E_tail Lx Ly Lz Xy Xz Yz Density 
  150519    52521.615    319.53271    26813.788    1903.9801   -1081.4375    822.54261    21361.204   -1524.2394    2619.6738   -3082.5166    862.42161    494.37131    644.28613            0     2001.079    -4177.951    -64.18469      37.4495      37.4495      37.4495            0            0            0   0.82348675 
151000 0.8234867517405469739 302.32763642041197727 -5872.4115795683001124 -1560.8886546559599537 1801.4613328123800784 240.57267815642200048 -4257.5412058016099763
  151000    52521.615    302.32764   -5872.4116    1801.4613   -1560.8887    240.57268   -4257.5412   -1668.7758    2556.0309    -3291.936    630.60615    487.97797    612.46321            0    1731.0473   -4179.1911    -64.18469      37.4495      37.4495      37.4495            0            0            0   0.82348675 
152000 0.8234867517405469739 311.42870975778697584 -849.91846557257304084 -1543.5681521243000134 1855.691345981179893 312.12319385688499551 -338.89215110388698804
  152000    52521.615    311.42871   -849.91847    1855.6913   -1543.5682    312.12319   -338.89215   -1712.5963    2579.6221   -3311.0635    646.02655    506.65637    614.81245            0    1767.4954   -4178.0893    -64.18469      37.4495      37.4495      37.4495            0            0            0   0.82348675 
153000 0.8234867517405469739 310.27370479173401918 -1071.2469851408800423 -1574.8321902437000972 1848.8090880103700329 273.97689776667800743 -546.57031213522202506
  153000    52521.615     310.2737    -1071.247    1848.8091   -1574.8322     273.9769   -546.57031   -1675.3196    2557.6147    -3296.077    621.62111    513.96474    585.65898            0    1721.2448   -4178.3721    -64.18469      37.4495      37.4495      37.4495            0            0            0   0.82348675 
154000 0.8234867517405469739 305.14129842615801635 805.72618840582197208 -1599.1906322554400504 1818.2269297884599837 219.03629753302499239 836.20151247581702592
  154000    52521.615     305.1413    805.72619    1818.2269   -1599.1906     219.0363    836.20151   -1652.0485    2518.4752   -3312.7343    614.89929    499.99497    598.64942            0    1713.5437    -4179.161    -64.18469      37.4495      37.4495      37.4495            0            0            0   0.82348675 
155000 0.8234867517405469739 312.89725165057001277 143.26895138311201094 -1612.6841429413400419 1864.441857402460073 251.75771446112199214 361.49798906971000179
  155000    52521.615    312.89725    143.26895    1864.4419   -1612.6841    251.75771    361.49799   -1713.1459    2569.1124   -3323.4978    618.77911    490.88315     601.1514            0    1710.8137   -4179.4643    -64.18469      37.4495      37.4495      37.4495            0            0            0   0.82348675 
156000 0.8234867517405469739 315.36086602429497816 1092.5209527343799891 -1588.5219183753799825 1879.1216468050199637 290.59972842964202755 1127.442241837200072
  156000    52521.615    315.36087     1092.521    1879.1216   -1588.5219    290.59973    1127.4422   -1699.1764    2540.5575   -3337.9914    631.13577    493.24672    625.08702            0    1749.4695   -4179.3725    -64.18469      37.4495      37.4495      37.4495            0            0            0   0.82348675 
157000 0.8234867517405469739 316.89732343507898804 201.8040852439079913 -1600.6837695986200742 1888.2768423002598865 287.59307270163299108 442.16973092384199617
  157000    52521.615    316.89732    201.80409    1888.2768   -1600.6838    287.59307    442.16973   -1734.5487    2623.2139   -3290.7147     591.2284    491.52959    607.27293            0    1690.0309   -4179.3799    -64.18469      37.4495      37.4495      37.4495            0            0            0   0.82348675 
158000 0.8234867517405469739 314.0869222737269979 294.33507039390201498 -1597.7744516244899842 1871.5306755197000257 273.75622389521402056 499.20919985503297767
  158000    52521.615    314.08692    294.33507    1871.5307   -1597.7745    273.75622     499.2092   -1737.5357    2609.9071   -3307.0951    589.34152    480.81277     639.1664            0    1709.3207   -4179.4666    -64.18469      37.4495      37.4495      37.4495            0            0            0   0.82348675 
159000 0.8234867517405469739 319.66710769377800716 1487.6717052028600392 -1698.4331452729700231 1904.7809876088199417 206.34784233585600077 1345.8655108907601061
  159000    52521.615    319.66711    1487.6717     1904.781   -1698.4331    206.34784    1345.8655   -1714.8433    2555.5907   -3339.0948    578.47956    448.41722    613.76484            0    1640.6616   -4179.8421    -64.18469      37.4495      37.4495      37.4495            0            0            0   0.82348675 
160000 0.8234867517405469739 304.70475900684198223 2786.9206536961601159 -1566.0479571170999407 1815.6257488529199691 249.57779173582099475 2384.286218763620127
  160000    52521.615    304.70476    2786.9207    1815.6257    -1566.048    249.57779    2384.2862   -1742.6758    2649.7692    -3272.518    585.55408    503.83722    617.07873            0      1706.47   -4179.6114    -64.18469      37.4495      37.4495      37.4495            0            0            0   0.82348675 
161000 0.8234867517405469739 306.54598801747198422 -74.533391718062404152 -1626.2106887329900928 1826.5969683774499117 200.38627964445799989 143.29564838285600104
  161000    52521.615    306.54599   -74.533392     1826.597   -1626.2107    200.38628    143.29565    -1695.469    2593.9285   -3281.8208    575.91405    484.81997    594.87609            0    1655.6101   -4180.2802    -64.18469      37.4495      37.4495      37.4495            0            0            0   0.82348675 
162000 0.8234867517405469739 322.41023944831101744 575.59044213356798991 -1604.882932959540085 1921.1263202588900185 316.24338729935698211 757.13063168846304052
  162000    52521.615    322.41024    575.59044    1921.1263   -1604.8829    316.24339    757.13063   -1757.5079    2646.1061    -3291.348    587.25165    496.41787    602.79555            0    1686.4651   -4179.9462    -64.18469      37.4495      37.4495      37.4495            0            0            0   0.82348675 
163000 0.8234867517405469739 309.27467799005199822 53.014427640817999077 -1564.5117505183900448 1842.8562476581601004 278.3444971397660197 318.95216398841398586
  163000    52521.615    309.27468    53.014428    1842.8562   -1564.5118     278.3445    318.95216    -1685.944    2609.4697    -3255.277    598.18516    510.93762    581.64245            0    1690.7652   -4178.8027    -64.18469      37.4495      37.4495      37.4495            0            0            0   0.82348675 
164000 0.8234867517405469739 295.2807951398140176 -484.58473912720700127 -1627.4261549182699582 1759.471747487770017 132.04559256950099666 -239.133660364011007
  164000    52521.615     295.2808   -484.58474    1759.4717   -1627.4262    132.04559   -239.13366    -1715.887    2555.0335   -3340.6501    608.25769    509.66063    595.30563            0     1713.224   -4179.7966    -64.18469      37.4495      37.4495      37.4495            0            0            0   0.82348675 
165000 0.8234867517405469739 310.75874120098302456 -102.48085684856199862 -1562.5878757460600355 1851.6992450155798906 289.1113692695190025 210.61370969908401207
  165000    52521.615    310.75874   -102.48086    1851.6992   -1562.5879    289.11137    210.61371    -1720.848    2601.0775   -3298.2602    618.68009    485.91861    631.07359            0    1735.6723   -4178.4897    -64.18469      37.4495      37.4495      37.4495            0            0            0   0.82348675 
166000 0.8234867517405469739 305.77618504724500781 177.5624911581899994 -1622.9145279038500576 1822.0099901535400022 199.09546224968599404 335.10369258689701155
  166000    52521.615    305.77619    177.56249      1822.01   -1622.9145    199.09546    335.10369   -1693.7934    2560.2754   -3311.9145    594.76773    501.92931    592.30296            0         1689   -4178.3965    -64.18469      37.4495      37.4495      37.4495            0            0            0   0.82348675 
167000 0.8234867517405469739 300.70090252756398286 -1375.9434678893198907 -1573.4443348523700479 1791.7682123241700083 218.32387747179899407 -835.61287961587504469
  167000    52521.615     300.7009   -1375.9435    1791.7682   -1573.4443    218.32388   -835.61288   -1761.1134    2618.9486    -3322.445    623.13013    500.53484    625.33571            0    1749.0007   -4180.2803    -64.18469      37.4495      37.4495      37.4495            0            0            0   0.82348675 
168000 0.8234867517405469739 313.08929248790599331 -638.83239177680798093 -1582.2853869703499186 1865.5861594810799033 283.30077251072998479 -206.02815344044100243
  168000    52521.615    313.08929   -638.83239    1865.5862   -1582.2854    283.30077   -206.02815   -1728.2655    2602.2611   -3306.0393    596.98079    519.09484    607.67833            0     1723.754   -4180.0349    -64.18469      37.4495      37.4495      37.4495            0            0            0   0.82348675 
169000 0.8234867517405469739 317.8085282796159845 461.6138122493439937 -1580.7675469637899823 1893.7063832881099188 312.93883632431902697 666.52295926452495678
  169000    52521.615    317.80853    461.61381    1893.7064   -1580.7675    312.93884    666.52296   -1709.9372    2539.1609   -3350.6995    618.37004    547.27814    604.28374            0    1769.9319   -4179.9231    -64.18469      37.4495      37.4495      37.4495            0            0            0   0.82348675 
170000 0.8234867517405469739 310.8548371643969972 836.96558563932103425 -1613.6393390089799595 1852.2718461987799401 238.63250718980199849 879.72628444784197654
  170000    52521.615    310.85484    836.96559    1852.2718   -1613.6393    238.63251    879.72628   -1676.6728    2527.8972   -3329.1121    593.32921    498.31851    623.82499            0    1715.4727   -4180.3365    -64.18469      37.4495      37.4495      37.4495            0            0            0   0.82348675 
171000 0.8234867517405469739 304.81535143298697221 1399.443939521880111 -1572.6678710834798949 1816.2847292285100593 243.61685814502999392 1315.5543626765199861
  171000    52521.615    304.81535    1399.4439    1816.2847   -1572.6679    243.61686    1315.5544   -1742.6097    2594.9183   -3329.2958    606.27938    506.36065    643.98793            0     1756.628   -4181.6045    -64.18469      37.4495      37.4495      37.4495            0            0            0   0.82348675 
172000 0.8234867517405469739 308.17915722467898831 782.98836944617198697 -1573.4776858512000217 1836.3284345826500612 262.85074873144498042 862.59938825755898506
  172000    52521.615    308.17916    782.98837    1836.3284   -1573.4777    262.85075    862.59939   -1681.0718    2547.8797   -3313.3799     606.1604    518.85162    614.89023            0    1739.9023   -4180.1878    -64.18469      37.4495      37.4495      37.4495            0            0            0   0.82348675 
173000 0.8234867517405469739 314.82999315634299364 -690.55200539485895206 -1656.8607870071700745 1875.9583668760799355 219.09757986890900838 -309.84721920970400788
  173000    52521.615    314.82999   -690.55201    1875.9584   -1656.8608    219.09758   -309.84722   -1759.8393    2601.7682   -3337.4288    574.70812    498.36753    607.49237            0     1680.568   -4179.3577    -64.18469      37.4495      37.4495      37.4495            0            0            0   0.82348675 
174000 0.8234867517405469739 304.67428774957397764 1172.8967883077800707 -1632.780309852739947 1815.4441816221399222 182.66387176939900883 1081.0721758285098986
  174000    52521.615    304.67429    1172.8968    1815.4442   -1632.7803    182.66387    1081.0722   -1730.0224    2610.4621   -3299.1281    589.12669    498.40108    578.82003            0    1666.3478   -4179.5678    -64.18469      37.4495      37.4495      37.4495            0            0            0   0.82348675 
175000 0.8234867517405469739 310.91083400422701288 -795.4511619502980011 -1570.8380879746200662 1852.6055111687101089 281.76742319408901949 -327.52738986501401541
  175000    52521.615    310.91083   -795.45116    1852.6055   -1570.8381    281.76742   -327.52739   -1726.5179    2611.5687   -3295.0482    606.52888    499.46692    618.21432            0    1724.2101    -4180.099    -64.18469      37.4495      37.4495      37.4495            0            0            0   0.82348675 
176000 0.8234867517405469739 310.13067139546802764 69.337786377396497528 -1626.2026180738500898 1847.9568035956099266 221.75418552175401032 274.86511880038000299
  176000    52521.615    310.13067    69.337786    1847.9568   -1626.2026    221.75419    274.86512   -1740.1751    2578.0789   -3342.4949    608.03989    505.47037    602.78206            0    1716.2923   -4180.3987    -64.18469      37.4495      37.4495      37.4495            0            0            0   0.82348675 
177000 0.8234867517405469739 301.83982466094499841 1086.4255135114599398 -1643.7390736014499453 1798.5546384963299715 154.81556489487701356 986.98913106909901671
  177000    52521.615    301.83982    1086.4255    1798.5546   -1643.7391    154.81556    986.98913   -1701.7161    2571.5612   -3310.6569    578.20149    484.81966    603.89665            0    1666.9178    -4180.502    -64.18469      37.4495      37.4495      37.4495            0            0            0   0.82348675 
178000 0.8234867517405469739 314.41637245187297367 457.60157352172700485 -1673.4295209277299818 1873.4937502952800514 200.0642293675510075 550.57508224112200423
  178000    52521.615    314.41637    457.60157    1873.4938   -1673.4295    200.06423    550.57508   -1751.6338    2617.3961   -3315.0955    569.01716    489.02106    583.62771            0    1641.6659   -4180.8577    -64.18469      37.4495      37.4495      37.4495            0            0            0   0.82348675 
179000 0.8234867517405469739 310.25956052433201648 154.31950515062700902 -1576.7898351127500973 1848.7248074229000849 271.93497231014902127 390.13968246682298968
  179000    52521.615    310.25956    154.31951    1848.7248   -1576.7898    271.93497    390.13968   -1753.1191    2626.2292    -3306.757    597.60645    534.08572    598.27499            0    1729.9672    -4179.867    -64.18469      37.4495      37.4495      37.4495            0            0            0   0.82348675 
180000 0.8234867517405469739 305.93575312975298175 -262.77088944310401075 -1509.2591642191400751 1822.9607987993899769 313.70163458025501768 112.42599677986099493
  180000    52521.615    305.93575   -262.77089    1822.9608   -1509.2592    313.70163      112.426   -1703.7406    2551.6025   -3333.4019     622.2134    560.81181    641.11752            0    1824.1427   -4181.2638    -64.18469      37.4495      37.4495      37.4495            0            0            0   0.82348675 
181000 0.8234867517405469739 307.24043303340300781 -860.78706952442098554 -1625.0463732054199681 1830.7349157340900092 205.6885425286679947 -453.65186917387501353
  181000    52521.615    307.24043   -860.78707    1830.7349   -1625.0464    205.68854   -453.65187   -1741.5253    2588.6337    -3332.081    597.01632    492.52355    617.49473            0    1707.0346   -4179.1894    -64.18469      37.4495      37.4495      37.4495            0            0            0   0.82348675 
182000 0.8234867517405469739 310.17803750748601033 1331.7438718550299654 -1650.3802858972198919 1848.2390411716899052 197.85875527447100808 1217.9397762828000396
  182000    52521.615    310.17804    1331.7439     1848.239   -1650.3803    197.85876    1217.9398   -1726.0426    2606.5341   -3301.0012    570.45836    472.39113    607.77141            0    1650.6209   -4181.4927    -64.18469      37.4495      37.4495      37.4495            0            0            0   0.82348675 
183000 0.8234867517405469739 304.92386045028399622 843.79272362474898728 -1609.906130675580016 1816.9312953222899978 207.0251646467150124 853.34835127837504842
  183000    52521.615    304.92386    843.79272    1816.9313   -1609.9061    207.02516    853.34835   -1733.0654    2582.0217   -3329.0989    597.81425    494.35858     627.0199            0    1719.1927   -4178.0552    -64.18469      37.4495      37.4495      37.4495            0            0            0   0.82348675 
184000 0.8234867517405469739 313.9571754552019911 -695.08712153064095673 -1618.4633056918698912 1870.757561029090084 252.29425533721800434 -280.12432424525098895
  184000    52521.615    313.95718   -695.08712    1870.7576   -1618.4633    252.29426   -280.12432   -1751.1722    2598.7061   -3330.5509    582.75476    520.67891    608.65396            0    1712.0876   -4178.0848    -64.18469      37.4495      37.4495      37.4495            0            0            0   0.82348675 
185000 0.8234867517405469739 302.78281629092901994 -742.83764494690296942 -1598.8270442564501082 1804.1735854728399318 205.34654121638598667 -363.64769207064500733
  185000    52521.615    302.78282   -742.83764    1804.1736    -1598.827    205.34654   -363.64769   -1716.3014    2573.8988   -3321.4151    593.11539    501.05429    628.41837            0     1722.588   -4179.0124    -64.18469      37.4495      37.4495      37.4495            0            0            0   0.82348675 
186000 0.8234867517405469739 309.49486140048099969 -1299.811645299140082 -1581.8686399129298934 1844.1682411785400291 262.29960126560700928 -733.32216826305204904
  186000    52521.615    309.49486   -1299.8116    1844.1682   -1581.8686     262.2996   -733.32217    -1759.827    2623.4879   -3316.1058    603.38544    507.14316    623.70856            0    1734.2372   -4179.7667    -64.18469      37.4495      37.4495      37.4495            0            0            0   0.82348675 
187000 0.8234867517405469739 321.84732409023001765 563.22040722275698954 -1606.3701493917099015 1917.7721106893100114 311.40196129760698796 742.81408204739602752
[...]
4123000 0.8234867517405469739 301.23106997568601173 -1358.277362203300072 -1679.8253700316699906 1794.9272889107999163 115.10191887913400421 -925.303062687518036
 4123000    52521.615    301.23107   -1358.2774    1794.9273   -1679.8254    115.10192   -925.30306   -1746.0989    2512.7527   -3413.8977    631.66506    513.71096    588.69636            0    1734.0724   -4180.5515    -64.18469      37.4495      37.4495      37.4495            0            0            0   0.82348675 
4124000 0.8234867517405469739 318.09332598790098245 1601.4216599051198955 -1646.2173730763599906 1895.4033901023799444 249.18601702601898751 1475.8331797611399452
4124000 0.8234867517405469739 318.09332598790098245 1601.4216599051198955 -1646.2173730763599906 1895.4033901023799444 249.18601702601898751 1475.8331797611399452
 4124000    52521.615    318.09333    1601.4217    1895.4034   -1646.2174    249.18602    1475.8332   -1767.2202    2569.8578   -3378.8197     609.6381    505.86491    617.09927            0    1732.6023   -4181.4573    -64.18469      37.4495      37.4495      37.4495            0            0            0   0.82348675 
4125000 0.8234867517405469739 312.56982912946102715 999.15891555076495933 -1724.7856450137498996 1862.4908647037600531 137.70521969001700313 903.03485120908896988
4125000 0.8234867517405469739 312.56982912946102715 999.15891555076495933 -1724.7856450137498996 1862.4908647037600531 137.70521969001700313 903.03485120908896988
 4125000    52521.615    312.56983    999.15892    1862.4909   -1724.7856    137.70522    903.03485   -1745.6163    2532.1918    -3395.445     607.7457    481.47646    581.43718            0    1670.6593   -4182.0206    -64.18469      37.4495      37.4495      37.4495            0            0            0   0.82348675 
4126000 0.8234867517405469739 315.65306443420899996 -1451.3725830051901085 -1606.258545865960059 1880.8627517308000279 274.60420586483598981 -837.1092832110780364
4126000 0.8234867517405469739 315.65306443420899996 -1451.3725830051901085 -1606.258545865960059 1880.8627517308000279 274.60420586483598981 -837.1092832110780364
 4126000    52521.615    315.65306   -1451.3726    1880.8628   -1606.2585    274.60421   -837.10928    -1770.254    2570.9582   -3380.3883    633.32478    517.45988    623.34507            0    1774.1297   -4181.0925    -64.18469      37.4495      37.4495      37.4495            0            0            0   0.82348675 
4127000 0.8234867517405469739 319.34151418021400559 331.30607096930901889 -1721.1802674409000247 1902.8408933063499262 181.66062586544700252 435.43242259230197533
4127000 0.8234867517405469739 319.34151418021400559 331.30607096930901889 -1721.1802674409000247 1902.8408933063499262 181.66062586544700252 435.43242259230197533
 4127000    52521.615    319.34151    331.30607    1902.8409   -1721.1803    181.66063    435.43242   -1746.7988    2562.7059   -3365.9901     589.8741    485.21379    569.72194            0    1644.8098   -4181.8973    -64.18469      37.4495      37.4495      37.4495            0            0            0   0.82348675 
4128000 0.8234867517405469739 304.70712665188699475 -314.24953393541301239 -1663.9961804366600973 1815.6398567957101022 151.64367635904000053 -89.063258512532698319
4128000 0.8234867517405469739 304.70712665188699475 -314.24953393541301239 -1663.9961804366600973 1815.6398567957101022 151.64367635904000053 -89.063258512532698319
 4128000    52521.615    304.70713   -314.24953    1815.6399   -1663.9962    151.64368   -89.063259   -1752.7957     2579.428   -3354.1552    568.63672    488.99572    632.52663            0    1690.1591   -4180.7875    -64.18469      37.4495      37.4495      37.4495            0            0            0   0.82348675 
4129000 0.8234867517405469739 320.70454059059500196 -145.96762698453798635 -1673.3334893892099444 1910.9626760284800184 237.62918663927399621 125.82179700875599337
4129000 0.8234867517405469739 320.70454059059500196 -145.96762698453798635 -1673.3334893892099444 1910.9626760284800184 237.62918663927399621 125.82179700875599337
 4129000    52521.615    320.70454   -145.96763    1910.9627   -1673.3335    237.62919     125.8218   -1751.4961    2528.7905   -3404.2812    616.84232    500.54971     613.5557            0    1730.9477   -4181.5756    -64.18469      37.4495      37.4495      37.4495            0            0            0   0.82348675 
4130000 0.8234867517405469739 312.16654752173798215 214.14391387190300975 -1711.9565587820800374 1860.0878550710699528 148.13129628899301338 312.159940926862987
4130000 0.8234867517405469739 312.16654752173798215 214.14391387190300975 -1711.9565587820800374 1860.0878550710699528 148.13129628899301338 312.159940926862987
 4130000    52521.615    312.16655    214.14391    1860.0879   -1711.9566     148.1313    312.15994   -1792.5416    2539.7934   -3433.8518    625.41249    510.90584    585.57687            0    1721.8952   -4181.1036    -64.18469      37.4495      37.4495      37.4495            0            0            0   0.82348675 
4131000 0.8234867517405469739 316.87955848080900978 328.42901295611602563 -1705.5211615486900882 1888.1709873457600679 182.64982579706699539 434.21787123388497776
4131000 0.8234867517405469739 316.87955848080900978 328.42901295611602563 -1705.5211615486900882 1888.1709873457600679 182.64982579706699539 434.21787123388497776
 4131000    52521.615    316.87956    328.42901     1888.171   -1705.5212    182.64983    434.21787   -1746.2173    2519.8018   -3406.8876    588.58906    518.46407    594.31328            0    1701.3664   -4180.4721    -64.18469      37.4495      37.4495      37.4495            0            0            0   0.82348675 
4132000 0.8234867517405469739 296.96316134735599235 -270.12347625522698991 -1707.065049142019916 1769.4963608721200217 62.431311730097398538 -144.47621552056600081
4132000 0.8234867517405469739 296.96316134735599235 -270.12347625522698991 -1707.065049142019916 1769.4963608721200217 62.431311730097398538 -144.47621552056600081
 4132000    52521.615    296.96316   -270.12348    1769.4964    -1707.065    62.431312   -144.47622   -1747.0611    2513.0514   -3414.1053    644.90857    472.75056    589.38108            0    1707.0402   -4180.0955    -64.18469      37.4495      37.4495      37.4495            0            0            0   0.82348675 
4133000 0.8234867517405469739 306.70535387627001001 -940.59641647530997943 -1696.1609093743800258 1827.5465720451600191 131.38566267077999328 -589.0866241950169524
4133000 0.8234867517405469739 306.70535387627001001 -940.59641647530997943 -1696.1609093743800258 1827.5465720451600191 131.38566267077999328 -589.0866241950169524
 4133000    52521.615    306.70535   -940.59642    1827.5466   -1696.1609    131.38566   -589.08662   -1772.6213    2534.3894   -3416.8046    621.68262    522.60431    576.35679            0    1720.6437   -4178.5727    -64.18469      37.4495      37.4495      37.4495            0            0            0   0.82348675 
4134000 0.8234867517405469739 300.97676591975198335 231.56836446022700216 -1677.7198873793799976 1793.411982771519888 115.69209539214000415 293.06741405816802626
4134000 0.8234867517405469739 300.97676591975198335 231.56836446022700216 -1677.7198873793799976 1793.411982771519888 115.69209539214000415 293.06741405816802626
 4134000    52521.615    300.97677    231.56836     1793.412   -1677.7199     115.6921    293.06741   -1750.5427     2529.884   -3400.5941    604.48873    510.17499    608.21051            0    1722.8742   -4179.9353    -64.18469      37.4495      37.4495      37.4495            0            0            0   0.82348675 
4135000 0.8234867517405469739 308.79592102192299308 -212.26898095451198856 -1760.774479673830001 1840.0035075775299447 79.229027903699005719 -83.363467092249806001
4135000 0.8234867517405469739 308.79592102192299308 -212.26898095451198856 -1760.774479673830001 1840.0035075775299447 79.229027903699005719 -83.363467092249806001
 4135000    52521.615    308.79592   -212.26898    1840.0035   -1760.7745    79.229028   -83.363467   -1780.3769    2549.4966   -3410.5641    578.38387    516.14963    555.25613            0    1649.7896   -4179.6839    -64.18469      37.4495      37.4495      37.4495            0            0            0   0.82348675 
4136000 0.8234867517405469739 300.54221464543797993 -155.94971981153199181 -1649.3693731262299025 1790.822648474890002 141.45327534866399333 21.999863342556000845
4136000 0.8234867517405469739 300.54221464543797993 -155.94971981153199181 -1649.3693731262299025 1790.822648474890002 141.45327534866399333 21.999863342556000845
 4136000    52521.615    300.54221   -155.94972    1790.8226   -1649.3694    141.45328    21.999863   -1778.0494    2570.1436    -3388.239    617.02735    536.87732    584.96496            0    1738.8696   -4180.3332    -64.18469      37.4495      37.4495      37.4495            0            0            0   0.82348675 
4137000 0.8234867517405469739 312.19427606850598522 238.46739526163099754 -1685.308233796399918 1860.2530794792999131 174.94484568289200865 357.60464174175501739
4137000 0.8234867517405469739 312.19427606850598522 238.46739526163099754 -1685.308233796399918 1860.2530794792999131 174.94484568289200865 357.60464174175501739
 4137000    52521.615    312.19428     238.4674    1860.2531   -1685.3082    174.94485    357.60464   -1754.9622     2553.675   -3380.9078    632.08171    477.14551     586.3723            0    1695.5995   -4179.6206    -64.18469      37.4495      37.4495      37.4495            0            0            0   0.82348675 
4138000 0.8234867517405469739 311.41619860231901384 22.637901652372100614 -1666.3574249370599318 1855.6167965186500624 189.25937158158799889 206.59941295070700562
4138000 0.8234867517405469739 311.41619860231901384 22.637901652372100614 -1666.3574249370599318 1855.6167965186500624 189.25937158158799889 206.59941295070700562
 4138000    52521.615     311.4162    22.637902    1855.6168   -1666.3574    189.25937    206.59941   -1752.4064    2571.0805   -3360.8911    601.81073      492.596    600.12698            0    1694.5337   -4179.5652    -64.18469      37.4495      37.4495      37.4495            0            0            0   0.82348675 
4139000 0.8234867517405469739 302.59550993592199575 -554.12491460398996423 -1707.2028862148999906 1803.057494466640037 95.854608251746398651 -328.59060272416701309
4139000 0.8234867517405469739 302.59550993592199575 -554.12491460398996423 -1707.2028862148999906 1803.057494466640037 95.854608251746398651 -328.59060272416701309
 4139000    52521.615    302.59551   -554.12491    1803.0575   -1707.2029    95.854608    -328.5906   -1705.3657    2503.5349   -3382.0819    628.62098    462.99863    583.25942            0     1674.879   -4180.2512    -64.18469      37.4495      37.4495      37.4495            0            0            0   0.82348675 
4140000 0.8234867517405469739 316.27436113154300301 6.9213931008534403944 -1666.2814644023599158 1884.56483464223993 218.28337023988299848 223.58497656999799119
4140000 0.8234867517405469739 316.27436113154300301 6.9213931008534403944 -1666.2814644023599158 1884.56483464223993 218.28337023988299848 223.58497656999799119
 4140000    52521.615    316.27436    6.9213931    1884.5648   -1666.2815    218.28337    223.58498    -1711.164    2514.1238   -3376.9749    624.60545    501.58896    584.49906            0    1710.6935   -4179.9348    -64.18469      37.4495      37.4495      37.4495            0            0            0   0.82348675 
4141000 0.8234867517405469739 311.04420650111001123 -1331.312299982849936 -1698.0684206772300513 1853.4002297688300587 155.33180909160299166 -864.41863913518204754
4141000 0.8234867517405469739 311.04420650111001123 -1331.312299982849936 -1698.0684206772300513 1853.4002297688300587 155.33180909160299166 -864.41863913518204754
 4141000    52521.615    311.04421   -1331.3123    1853.4002   -1698.0684    155.33181   -864.41864   -1749.9572    2535.6336   -3393.5055    611.04563    507.38305    577.00836            0     1695.437   -4179.1819    -64.18469      37.4495      37.4495      37.4495            0            0            0   0.82348675 
4142000 0.8234867517405469739 316.31836414488202536 -274.48218321450099211 -1706.3046354605100987 1884.8270327264099251 178.52239726589701263 -31.723785667183800996
4142000 0.8234867517405469739 316.31836414488202536 -274.48218321450099211 -1706.3046354605100987 1884.8270327264099251 178.52239726589701263 -31.723785667183800996
 4142000    52521.615    316.31836   -274.48218     1884.827   -1706.3046     178.5224   -31.723786   -1758.4255    2520.2699   -3417.2752    623.78853    491.13694    596.04505            0    1710.9705   -4179.1195    -64.18469      37.4495      37.4495      37.4495            0            0            0   0.82348675 
4143000 0.8234867517405469739 310.67400091776499949 26.585698839395899284 -1698.2130778650100638 1851.1943082345599123 152.98123036954999066 173.34518126840799823
4143000 0.8234867517405469739 310.67400091776499949 26.585698839395899284 -1698.2130778650100638 1851.1943082345599123 152.98123036954999066 173.34518126840799823
 4143000    52521.615      310.674    26.585699    1851.1943   -1698.2131    152.98123    173.34518   -1762.8367     2553.801   -3387.7542    606.69986    484.01705    598.82424            0    1689.5411   -4178.7184    -64.18469      37.4495      37.4495      37.4495            0            0            0   0.82348675 
4144000 0.8234867517405469739 301.48854884296400769 14.500585135785700075 -1719.3177032763599072 1796.4615126056899044 77.143809329332299285 88.250878791515603439
4144000 0.8234867517405469739 301.48854884296400769 14.500585135785700075 -1719.3177032763599072 1796.4615126056899044 77.143809329332299285 88.250878791515603439
 4144000    52521.615    301.48855    14.500585    1796.4615   -1719.3177    77.143809    88.250879   -1777.6161    2564.1591     -3393.42     618.9443    490.74929    564.40875            0    1674.1023   -4179.9631    -64.18469      37.4495      37.4495      37.4495            0            0            0   0.82348675 
4145000 0.8234867517405469739 306.65133084984699963 -239.75701018709099799 -1720.3929604960299002 1827.2246683173500514 106.83170782132100385 -76.815899586010004896
4145000 0.8234867517405469739 306.65133084984699963 -239.75701018709099799 -1720.3929604960299002 1827.2246683173500514 106.83170782132100385 -76.815899586010004896
 4145000    52521.615    306.65133   -239.75701    1827.2247    -1720.393    106.83171     -76.8159   -1757.9914    2539.1202    -3398.207    601.70769    499.50672    576.59961            0     1677.814   -4179.3358    -64.18469      37.4495      37.4495      37.4495            0            0            0   0.82348675 
4146000 0.8234867517405469739 310.40680534595298923 -595.76619274176402996 -1623.6291725683099685 1849.6021862022600999 225.9730136339420028 -230.36832873524301135
4146000 0.8234867517405469739 310.40680534595298923 -595.76619274176402996 -1623.6291725683099685 1849.6021862022600999 225.9730136339420028 -230.36832873524301135
 4146000    52521.615    310.40681   -595.76619    1849.6022   -1623.6292    225.97301   -230.36833   -1709.5712    2522.0167   -3367.1858    631.84065    514.79689     596.9191            0    1743.5566   -4179.6313    -64.18469      37.4495      37.4495      37.4495            0            0            0   0.82348675 
4147000 0.8234867517405469739 301.64728636127398431 -953.62011229979304971 -1723.9122308688699832 1797.4073722190898934 73.49514135021630068 -656.95295634130195594
4147000 0.8234867517405469739 301.64728636127398431 -953.62011229979304971 -1723.9122308688699832 1797.4073722190898934 73.49514135021630068 -656.95295634130195594
 4147000    52521.615    301.64729   -953.62011    1797.4074   -1723.9122    73.495141   -656.95296   -1770.5755    2529.0749   -3422.0391    617.58821    487.52437    593.01426            0    1698.1268   -4180.5384    -64.18469      37.4495      37.4495      37.4495            0            0            0   0.82348675 
4148000 0.8234867517405469739 312.36093615458702288 1185.5361238471800789 -1683.9029802654999912 1861.2461468162900928 177.34316655078299618 1085.4328714966400184
4148000 0.8234867517405469739 312.36093615458702288 1185.5361238471800789 -1683.9029802654999912 1861.2461468162900928 177.34316655078299618 1085.4328714966400184
 4148000    52521.615    312.36094    1185.5361    1861.2461    -1683.903    177.34317    1085.4329   -1742.8072     2555.604   -3368.9333    620.34805    490.50627    574.17598            0    1685.0303   -4181.7301    -64.18469      37.4495      37.4495      37.4495            0            0            0   0.82348675 
4149000 0.8234867517405469739 315.8337138839260092 -525.09953839500099093 -1644.1188625071799834 1881.9391766395899594 237.82031413241500672 -164.3922168033240041
4149000 0.8234867517405469739 315.8337138839260092 -525.09953839500099093 -1644.1188625071799834 1881.9391766395899594 237.82031413241500672 -164.3922168033240041
 4149000    52521.615    315.83371   -525.09954    1881.9392   -1644.1189    237.82031   -164.39222   -1775.0474    2579.8281   -3375.8494    620.76246    515.56716    595.40088            0    1731.7305     -4180.63    -64.18469      37.4495      37.4495      37.4495            0            0            0   0.82348675 
4150000 0.8234867517405469739 311.65326006723500996 -747.39676458971803186 -1683.4004683497100814 1857.0293602776300759 173.62889192792599147 -398.85750792238201257
4150000 0.8234867517405469739 311.65326006723500996 -747.39676458971803186 -1683.4004683497100814 1857.0293602776300759 173.62889192792599147 -398.85750792238201257
 4150000    52521.615    311.65326   -747.39676    1857.0294   -1683.4005    173.62889   -398.85751   -1747.5268    2542.2284   -3386.3381     619.1275    488.02477    595.78541            0    1702.9377   -4181.0397    -64.18469      37.4495      37.4495      37.4495            0            0            0   0.82348675 
 4150519    52521.615     317.7138    381.49426    1893.1419    -1674.661    218.48098    510.69561   -1742.1953    2556.4175   -3365.9318    587.98082    523.45637    579.83369            0    1691.2709    -4180.154    -64.18469      37.4495      37.4495      37.4495            0            0            0   0.82348675 
Loop time of 5207.88 on 48 procs for 3000000 steps with 2000 atoms

Performance: 49.771 ns/day, 0.482 hours/ns, 576.050 timesteps/s
43.8% CPU use with 48 MPI tasks x 1 OpenMP threads

MPI task timing breakdown:
Section |  min time  |  avg time  |  max time  |%varavg| %total
---------------------------------------------------------------
Pair    | 697.42     | 779.39     | 933.55     | 204.6 | 14.97
Bond    | 30         | 32.946     | 39.069     |  30.1 |  0.63
Kspace  | 873.44     | 1128.1     | 1284.6     | 313.1 | 21.66
Neigh   | 196.86     | 229.7      | 256.32     | 128.8 |  4.41
Comm    | 1928       | 2247.1     | 2717.5     | 390.0 | 43.15
Output  | 12.436     | 12.483     | 12.492     |   0.2 |  0.24
Modify  | 163.22     | 474.09     | 677.2      | 549.4 |  9.10
Other   |            | 304.1      |            |       |  5.84

Nlocal:    41.6667 ave 54 max 32 min
Histogram: 4 5 2 6 12 7 5 6 0 1
Nghost:    2477.9 ave 2527 max 2430 min
Histogram: 1 6 3 11 5 6 5 4 4 3
Neighs:    11191.8 ave 14486 max 8176 min
Histogram: 3 4 4 5 7 12 5 6 1 1

Total # of neighbors = 537208
Ave neighs/atom = 268.604
Ave special neighs/atom = 4.8
Neighbor list builds = 265825
Dangerous builds = 0

write_data      restart.${NAME}.final.data
write_data      restart.octanol_ua_310.final.data
Ewald initialization ...
  using 12-bit tables for long-range coulomb (src/kspace.cpp:332)
  G vector (1/distance) = 0.149129
  estimated absolute RMS force accuracy = 0.0367822
  estimated relative force accuracy = 0.000110768
  KSpace vectors: actual max1d max3d = 128 4 364
                  kxmax kymax kzmax  = 4 4 4
Total wall time: 1:59:32
