
variable        infile index octanol_ua.data   # The name of the (edited) data file

#>>>>>> Simulation settings <<<<<<<

units		 real		#angstroms = length -
atom_style	 full		#How the atoms are defined in the input data file
boundary        p p p           #periodic box in x, y and z
pair_style	 lj/cut/coul/long 14.0    #'lj/cut/coul/long 12.0' for your ethanol simulation
pair_modify     tail yes            #Tail corrections
pair_modify     mix arithmetic      #Lorentz-Berthelot pair interactions between dissimilar atom

# The settings below are additional settings you must add for your ethanol simulation as already detailed in your example NPT LAMMPS script in the tutorial
# For your ethanol homework, change/edit the pair_style line as advised above and uncomment the extra settings below and you should be good to go for this section.

special_bonds   lj/coul 0.0 0.0 0.5
kspace_style    ewald 0.0001
bond_style      harmonic
angle_style     harmonic
dihedral_style  opls


# >>> Using the variable command in LAMMPS to define inputs/settings for the simulation <<<<<<

variable   simulationTemp  index 333     #Simulation temperature
variable   simulationPress equal 0.987	#Simulation pressure

# Output files frequencies
variable        dumpfreq   index 1000          #Output frequency of dump information to dump
variable        thermofreq index 1000          #Output frequency of property information to log
variable        printfreq  index 1000          #Output frequency of information to be printed
variable        restartfreq index 1000000      #Output frequency of restart files


# Simulation run times (equilibration and production)
variable        NVT_equib  index 1000000       # Equilibration run length (in timesteps)
variable        NVT_prod   index 3000000       # Simulation run length  (in timesteps)


# Defining properties to output
# The first expression after the 'variable' command is a user defined name for the variable, it can be anything
# The expression after the 'equal' keyword are LAMMPS special/reserved terms for those property

variable    step        equal step
variable    density     equal density
variable    temp        equal temp
variable    press       equal press
variable    ke          equal ke
variable    pe          equal pe
variable    etotal      equal etotal
variable    enthalpy    equal enthalpy


# >>>>>>>>>>> Reading data, Neighbor list settings, energy minimization, assigning initial velocities & specifying thermodynamic property output style to log files <<<<<<<<<

read_data	${infile}
read_data	octanol_ua.data
  orthogonal box = (0 0 0) to (40 40 40)
  3 by 4 by 4 MPI processor grid
  reading atoms ...
  2000 atoms
  scanning bonds ...
  1 = max bonds/atom
  scanning angles ...
  1 = max angles/atom
  scanning dihedrals ...
  1 = max dihedrals/atom
  reading bonds ...
  1800 bonds
  reading angles ...
  1600 angles
  reading dihedrals ...
  1400 dihedrals
  2 = max # of 1-2 neighbors
  2 = max # of 1-3 neighbors
  4 = max # of 1-4 neighbors
  6 = max # of special neighbors
  special bonds CPU = 0.0178677 secs
  read_data CPU = 0.0398089 secs
neighbor        1.0 bin
neigh_modify    delay 0 every 1 check yes page 1000000 one 20000
timestep        1.0

minimize        1e-4 1e-6 10000 100000        #Energy minimize before creating velocities
Ewald initialization ...
  using 12-bit tables for long-range coulomb (src/kspace.cpp:332)
  G vector (1/distance) = 0.147428
  estimated absolute RMS force accuracy = 0.041374
  estimated relative force accuracy = 0.000124597
  KSpace vectors: actual max1d max3d = 128 4 364
                  kxmax kymax kzmax  = 4 4 4
Neighbor list info ...
  update every 1 steps, delay 0 steps, check yes
  max neighbors/atom: 20000, page size: 1000000
  master list distance cutoff = 15
  ghost atom cutoff = 15
  binsize = 7.5, bins = 6 6 6
  1 neighbor lists, perpetual/occasional/extra = 1 0 0
  (1) pair lj/cut/coul/long, perpetual
      attributes: half, newton on
      pair build: half/bin/newton
      stencil: half/bin/3d/newton
      bin: standard
Per MPI rank memory allocation (min/avg/max) = 18.73 | 18.85 | 19.24 Mbytes
Step Temp E_pair E_mol TotEng Press 
       0            0    278272.25    45807.952     324080.2    1091500.2 
     519            0   -2759.2838    366.72189   -2392.5619    -653.1094 
Loop time of 2.23506 on 48 procs for 519 steps with 2000 atoms

40.7% CPU use with 48 MPI tasks x 1 OpenMP threads

Minimization stats:
  Stopping criterion = energy tolerance
  Energy initial, next-to-last, final = 
         324080.203868      -2392.3711054     -2392.56188381
  Force two-norm initial, final = 76473.1 25.3948
  Force max component initial, final = 6066.45 5.47673
  Final line search alpha, max atom move = 0.0145911 0.0799117
  Iterations, force evaluations = 519 954

MPI task timing breakdown:
Section |  min time  |  avg time  |  max time  |%varavg| %total
---------------------------------------------------------------
Pair    | 0.055941   | 0.32497    | 0.60504    |  28.0 | 14.54
Bond    | 0.0036303  | 0.011306   | 0.017349   |   3.5 |  0.51
Kspace  | 0.29869    | 0.63047    | 0.90795    |  20.4 | 28.21
Neigh   | 0.038602   | 0.04311    | 0.04692    |   1.5 |  1.93
Comm    | 0.58316    | 0.67782    | 0.81884    |   5.8 | 30.33
Output  | 0          | 0          | 0          |   0.0 |  0.00
Modify  | 0          | 0          | 0          |   0.0 |  0.00
Other   |            | 0.5474     |            |       | 24.49

Nlocal:    41.6667 ave 67 max 13 min
Histogram: 3 5 3 4 6 5 5 8 8 1
Nghost:    2115.67 ave 2186 max 2016 min
Histogram: 13 2 1 0 0 0 1 10 8 13
Neighs:    9780.23 ave 16722 max 1938 min
Histogram: 4 5 4 5 3 5 3 7 9 3

Total # of neighbors = 469451
Ave neighs/atom = 234.726
Ave special neighs/atom = 4.8
Neighbor list builds = 47
Dangerous builds = 0
#velocity	all create ${simulationTemp} 886874 mom yes rot yes dist gaussian

velocity        all create  ${simulationTemp} 317879265 units box
velocity        all create  333 317879265 units box
velocity        all zero linear units box

# The 'velocity' command line above assigns initial velocities to the atoms in our data file, see the LAMMPS 'velocity' command
# The number '886874' is the seed number which helps LAMMPS to consistently assign the same randomized velocities for the same simulation with the same seed number
# Changing that seed number for your simulation of a given system is one easy way to run an 'independent' simulation of the same system as taught in class
# You will need to do this for your homework

thermo_style    custom step vol temp press ke pe etotal enthalpy evdwl ecoul epair ebond eangle edihed eimp emol elong etail lx ly lz xy xz yz density
thermo          ${thermofreq}
thermo          1000

fix npt_density all npt temp ${simulationTemp} ${simulationTemp} 100 iso ${simulationPress} ${simulationPress} 1000
fix npt_density all npt temp 333 ${simulationTemp} 100 iso ${simulationPress} ${simulationPress} 1000
fix npt_density all npt temp 333 333 100 iso ${simulationPress} ${simulationPress} 1000
fix npt_density all npt temp 333 333 100 iso 0.987 ${simulationPress} 1000
fix npt_density all npt temp 333 333 100 iso 0.987 0.987 1000

run 50000
Ewald initialization ...
  using 12-bit tables for long-range coulomb (src/kspace.cpp:332)
  G vector (1/distance) = 0.147428
  estimated absolute RMS force accuracy = 0.041374
  estimated relative force accuracy = 0.000124597
  KSpace vectors: actual max1d max3d = 128 4 364
                  kxmax kymax kzmax  = 4 4 4
Per MPI rank memory allocation (min/avg/max) = 17.6 | 17.76 | 18.11 Mbytes
Step Volume Temp Press KinEng PotEng TotEng Enthalpy E_vdwl E_coul E_pair E_bond E_angle E_dihed E_impro E_mol E_long E_tail Lx Ly Lz Xy Xz Yz Density 
     519        64000          333    764.13323    1984.2269   -2392.5619     -408.335    304.88736   -1771.8765    3145.3273   -2759.2838    23.571376    41.518217     301.6323            0    366.72189   -4132.7346   -52.673181           40           40           40            0            0            0   0.67579459 
    1000    67381.356    293.35058     68.37848    1747.9703    -765.7734    982.19691    1049.3916   -1552.3321    3304.2269   -2379.1837     533.3415     444.7051    635.36375            0    1613.4103   -4131.0785   -50.029916    40.692395    40.692395    40.692395            0            0            0   0.64188162 
    2000    67981.454    326.08698   -581.37002    1943.0347   -520.78876    1422.2459    845.85256    -1413.493    3176.5175   -2367.0559    620.55786    510.67409    715.03519            0    1846.2671   -4130.0804   -49.588283     40.81284     40.81284     40.81284            0            0            0   0.63621549 
    3000    64973.068    343.89128    694.88404    2049.1241   -638.29576    1410.8283    2069.2765   -1414.9537     3113.123   -2431.6432    605.74509    487.97816    699.62418            0    1793.3474   -4129.8125   -51.884322    40.201704    40.201704    40.201704            0            0            0   0.66567357 
    4000     62616.09    333.01937   -299.21242    1984.3423   -820.94592    1163.3964    890.15818   -1510.0291     3015.922   -2626.1858    579.69106    524.35897    701.18986            0    1805.2399   -4132.0787   -53.837338    39.709582    39.709582    39.709582            0            0            0   0.69073068 
    5000    61096.865    335.56059   -445.78069    1999.4845    -876.7813    1122.7032    725.49698   -1506.0141    2936.3359   -2700.9841    574.46443    528.09401    721.64441            0    1824.2028   -4131.3059   -55.176048    39.385797    39.385797    39.385797            0            0            0   0.70790627 
    6000     59683.28    338.86651    -364.1284    2019.1833   -829.56194    1189.6214    872.67692    -1534.044     2937.176   -2726.2326    609.01352    555.18965    732.46745            0    1896.6706   -4129.3646   -56.482881    39.079671    39.079671    39.079671            0            0            0   0.72467288 
    7000    58455.607    333.25122    635.94042    1985.7238   -891.61097    1094.1128    1636.2616   -1518.4126    2892.4703   -2757.1435    592.20143    581.74425    691.58683            0    1865.5325   -4131.2012   -57.669123    38.809858    38.809858    38.809858            0            0            0   0.73989231 
    8000    57660.419    333.59588   -287.06069    1987.7775   -1119.0594    868.71806    627.32354   -1595.0179    2848.3229   -2878.3144    550.20194    527.04225    682.01082            0     1759.255   -4131.6194    -58.46443    38.633074    38.633074    38.633074            0            0            0   0.75009607 
    9000    56752.928    333.23963    729.21731    1985.6548   -1007.4145    978.24028    1581.8012   -1555.1741    2866.0089   -2821.6452    587.28389    512.03834     714.9085            0    1814.2307     -4132.48   -59.399289    38.429325    38.429325    38.429325            0            0            0   0.76209027 
   10000    56218.051    339.10297   -63.434553    2020.5923    -973.5235    1047.0688    995.05987   -1614.4276    2928.3008   -2816.2963    569.08341    557.39975     716.2896            0    1842.7728   -4130.1695   -59.964433    38.308216    38.308216    38.308216            0            0            0   0.76934104 
   11000    55752.131    326.23446    631.84163    1943.9135   -1031.9552    911.95827    1425.7009   -1609.4248    2811.9905   -2928.5987    588.75006    563.95513    743.93833            0    1896.6435   -4131.1645   -60.465555    38.202093    38.202093    38.202093            0            0            0   0.77577042 
   12000    56213.295    328.97355   -1046.6833    1960.2347   -1001.8319    958.40282    100.31797   -1581.1168    2806.8808   -2906.0771    622.58006    545.15573     736.5094            0    1904.2452   -4131.8411   -59.969507    38.307136    38.307136    38.307136            0            0            0   0.76940614 
   13000    56353.312    319.04981   -708.33794    1901.1027   -1074.7734    826.32933    244.17807    -1618.862    2839.0492   -2912.3487    581.19629    571.70415    684.67489            0    1837.5753   -4132.5359   -59.820505    38.338915    38.338915    38.338915            0            0            0   0.76749445 
   14000    55745.128    341.44192    962.33181    2034.5292   -1056.5283    978.00091    1760.3627   -1596.3281    2796.2828   -2931.6581    592.81751    547.83159    734.48065            0    1875.1298   -4131.6127   -60.473152    38.200493    38.200493    38.200493            0            0            0   0.77586788 
   15000    55536.698    328.53183    69.182632    1957.6027   -1075.9523    881.65038    937.68456   -1605.4201    2793.0734   -2944.5361     607.0182    545.24424    716.32131            0    1868.5838   -4132.1894   -60.700108    38.152824    38.152824    38.152824            0            0            0   0.77877972 
   16000    55254.939    338.86229   -1252.5198    2019.1582   -1146.0572    873.10094   -136.22534   -1624.1074    2786.7911   -2969.9942    579.01387    557.31892     687.6042            0     1823.937   -4132.6779   -61.009633    38.088193    38.088193    38.088193            0            0            0   0.78275091 
   17000    55713.464    320.05349    2451.7545    1907.0833   -1097.5616    809.52167    2801.6304   -1623.7535    2798.3184   -2956.7893    573.94743    551.71164    733.56863            0    1859.2277   -4131.3542   -60.507521    38.193259    38.193259    38.193259            0            0            0   0.77630884 
   18000    55392.644    336.94676   -434.98971    2007.7442   -1122.0728    885.67139    534.26717   -1581.1095    2724.9303   -2987.0792    581.14031    565.04955    718.81651            0    1865.0064   -4130.8999   -60.857965    38.119807    38.119807    38.119807            0            0            0   0.78080501 
   19000    55561.814    334.94641    1750.7111    1995.8248   -1075.6517    920.17314    2338.7954   -1618.1155    2791.3801   -2960.1582    597.02867    582.42953    705.04835            0    1884.5066   -4133.4228   -60.672669    38.158574    38.158574    38.158574            0            0            0   0.77842768 
   20000    55858.494    335.93649    600.09953    2001.7244   -1139.1785    862.54588    1351.4103     -1564.76    2725.1909   -2970.8482    594.07817    553.57545    684.01606            0    1831.6697   -4131.2791    -60.35042    38.226371    38.226371    38.226371            0            0            0   0.77429324 
   21000    55202.704    326.43651    1302.5103    1945.1174   -1143.2207    801.89671    1850.5149     -1595.57     2737.133   -2989.4886    561.12758     575.3079    709.83239            0    1846.2679   -4131.0516   -61.067364    38.076187    38.076187    38.076187            0            0            0   0.78349159 
   22000    55351.571     330.6585    1113.2964    1970.2748   -1121.3787     848.8961       1747.6   -1643.8853     2824.588   -2951.1113    563.13809    589.77765    676.81685            0    1829.7326    -4131.814   -60.903123    38.110383    38.110383    38.110383            0            0            0   0.78138439 
   23000      55920.2    333.24951    592.50447    1985.7136   -1024.4359    961.27779    1444.4881   -1619.3629     2849.894   -2899.4722    607.56752    527.84871    739.62014            0    1875.0364   -4130.0033   -60.283825    38.240442    38.240442    38.240442            0            0            0   0.77343883 
   24000    55263.043    326.39682    530.53057    1944.8809    -1112.032    832.84891    1260.4326   -1655.8381    2826.8702   -2962.6751     613.4662     541.8939    695.28297            0    1850.6431   -4133.7071   -61.000687    38.090055    38.090055    38.090055            0            0            0   0.78263613 
   25000     54461.56    333.81414    862.99262    1989.0781   -1236.7673    752.31074    1437.7564   -1662.4218     2741.361   -3053.2175    591.38004    525.60315    699.46698            0    1816.4502   -4132.1567   -61.898403    37.905017    37.905017    37.905017            0            0            0   0.79415379 
   26000     55319.99     330.6694    725.15299    1970.3397   -1071.2584    899.08125     1484.124   -1653.5249    2846.1861   -2939.2327    618.30287     577.3385    672.33291            0    1867.9743   -4131.8939   -60.937892    38.103134    38.103134    38.103134            0            0            0   0.78183048 
   27000    54391.656    329.81966    700.60381    1965.2764   -1042.3852    922.89113    1478.6427   -1651.0165     2842.581   -2941.4644    603.69232    581.90812    713.47879            0    1899.0792    -4133.029   -61.977954    37.888792    37.888792    37.888792            0            0            0   0.79517442 
   28000    55199.314    329.49788   -543.00647     1963.359   -1181.7298    781.62925    344.49527   -1613.3153     2750.112   -2995.9789     607.9573    531.18116    675.11067            0    1814.2491   -4132.7755   -61.071114    38.075407    38.075407    38.075407            0            0            0   0.78353971 
   29000    55120.805    343.97659   -528.00298    2049.6324   -1185.4822    864.15025      439.699   -1624.3791    2759.9029   -2996.2999    597.77703    545.18229    667.85838            0    1810.8177   -4131.8237   -61.158097    38.057348    38.057348    38.057348            0            0            0    0.7846557 
   30000     55222.14    324.60681   -667.96883    1934.2149   -1175.3498    758.86506    220.91084   -1613.1497    2745.3868   -2999.3771     588.3006    543.06804    692.65864            0    1824.0273   -4131.6143    -61.04587    38.080655    38.080655    38.080655            0            0            0   0.78321583 
   31000     54370.17    328.52686   -407.77193     1957.573   -1140.3668    817.20629    493.87041   -1702.0426    2840.1597   -2993.0421    607.93318    562.64651    682.09565            0    1852.6753   -4131.1592   -62.002447    37.883802    37.883802    37.883802            0            0            0   0.79548867 
   32000    55104.391    334.40376   -530.28364    1992.5914    -1241.597    750.99444    324.83675    -1681.057    2762.5059   -3049.7775    554.73715    544.71028    708.73315            0    1808.1806   -4131.2265   -61.176315     38.05357     38.05357     38.05357            0            0            0   0.78488944 
   33000    54620.388     332.8587   -193.70009    1983.3849   -1187.4759    795.90903    641.61096   -1603.3677    2709.8209   -3024.9183    627.17166    557.52747    652.74322            0    1837.4424   -4131.3714   -61.718411    37.941829    37.941829    37.941829            0            0            0    0.7918445 
   34000    55254.817    325.70496     759.9395    1940.7583   -1229.4738    711.28451    1323.6702   -1610.0794    2724.6872   -3018.4773    585.98101    559.05048    643.97193            0    1789.0034   -4133.0851   -61.009768    38.088165    38.088165    38.088165            0            0            0   0.78275264 
   35000    54683.058    326.59636   -378.53623    1946.0699   -1202.0894    743.98051    442.09926   -1597.3361    2693.4939   -3035.2098    605.47178    545.99944    681.64923            0    1833.1205   -4131.3676   -61.647679    37.956334    37.956334    37.956334            0            0            0   0.79093701 
   36000    54783.222    329.37682    118.03995    1962.6377   -1175.5507    787.08696    881.39582   -1618.0965      2715.92   -3033.7615    596.72234    541.63768    719.85076            0    1858.2108    -4131.585   -61.534963    37.979496    37.979496    37.979496            0            0            0   0.78949087 
   37000    55004.055    331.66626    602.24173    1976.2796   -1234.7196    741.56002    1224.6649   -1584.5331    2652.3273   -3062.8568    617.80844    527.39153    682.93717            0    1828.1371    -4130.651    -61.28791    38.030459    38.030459    38.030459            0            0            0   0.78632119 
   38000    54970.471    331.44438   -406.98032    1974.9575   -1252.8062    722.15129    395.88008   -1625.1042    2665.1253   -3091.7544    604.25885    556.06201    678.62734            0    1838.9482   -4131.7756   -61.325353    38.022718    38.022718    38.022718            0            0            0   0.78680159 
   39000    55250.912    324.43896   -402.77369    1933.2147   -1282.2081    651.00662    326.46049   -1646.1821    2698.1819   -3080.9229    597.22836    502.85656    698.62987            0    1798.7148   -4132.9227    -61.01408    38.087268    38.087268    38.087268            0            0            0   0.78280796 
   40000    54984.289    332.43566   -282.45192    1980.8642   -1215.5667     765.2975    538.80228   -1609.1665    2666.7307   -3074.5412    647.96671    536.37619    674.63158            0    1858.9745   -4132.1053   -61.309942    38.025903    38.025903    38.025903            0            0            0   0.78660386 
   41000    54828.913    332.56448     427.6699    1981.6318   -1219.0983    762.53343    1104.5083   -1607.7292    2656.1687   -3083.8736    631.63726    561.60387    671.53415            0    1864.7753   -4132.3131   -61.483685    37.990051    37.990051    37.990051            0            0            0   0.78883297 
   42000     54221.07    322.18106    520.17927    1919.7607   -1274.0688    645.69192    1057.0282   -1613.9202    2640.7997   -3106.7994    618.88958     500.1679    713.67317            0    1832.7307   -4133.6789   -62.172944    37.849141    37.849141    37.849141            0            0            0   0.79767614 
   43000    54397.421    330.92224   -600.08119    1971.8462   -1346.6504    625.19586    149.13309    -1708.647    2721.2655   -3121.7865    563.24804    552.19954     659.6885            0    1775.1361    -4134.405   -61.971386    37.890131    37.890131    37.890131            0            0            0   0.79509015 
   44000    55033.576    338.22561    763.24209    2015.3644   -1315.8195    699.54496    1312.1294   -1629.8309    2674.6661   -3087.8853    603.48444    510.26443    658.31699            0    1772.0659   -4132.7205   -61.255035    38.037262    38.037262    38.037262            0            0            0    0.7858994 
   45000    54715.122    326.69369    807.52197    1946.6499   -1260.4091    686.24082    1330.6142   -1624.0824    2666.3969   -3088.8655    606.05801    520.25848    702.13989            0    1828.4564   -4131.1799   -61.611551    37.963752    37.963752    37.963752            0            0            0    0.7904735 
   46000    55048.548    337.58417   -138.19348    2011.5423   -1263.3155    748.22684    637.28144   -1644.7696    2682.2318   -3094.5159    634.95404    525.57242    670.67393            0    1831.2004   -4131.9781   -61.238374    38.040711    38.040711    38.040711            0            0            0   0.78568564 
   47000     54746.31    328.14106    1079.0252    1955.2742   -1273.6361    681.63818    1543.1522    -1677.014    2712.8475   -3096.6067     629.2561    538.85863    654.85596            0    1822.9707   -4132.4402   -61.576452    37.970964    37.970964    37.970964            0            0            0   0.79002318 
   48000     54278.14    329.55957   -479.97027    1963.7266   -1220.9039     742.8227    362.88256   -1688.0629    2738.8204   -3082.1741    623.12362    549.44102    688.70557            0    1861.2702   -4132.9316   -62.107574    37.862416    37.862416    37.862416            0            0            0   0.79683744 
   49000    54400.264    341.93296   -466.66258    2037.4552   -1292.8646    744.59055     374.3535   -1648.6898    2627.4145   -3154.4663    636.61908    550.55176    674.43085            0    1861.6017   -4133.1911   -61.968147    37.890791    37.890791    37.890791            0            0            0    0.7950486 
   50000    54656.896    329.26255   -675.63649    1961.9568    -1233.139    728.81774    190.25792   -1614.1485     2648.167   -3099.7539     639.3063    545.31971    681.98889            0    1866.6149   -4133.7725   -61.677187     37.95028     37.95028     37.95028            0            0            0    0.7913156 
   50519    54631.454    332.67638   -1222.5934    1982.2985    -1266.573    715.72556   -258.36802   -1650.0385    2712.0931   -3071.3182    585.60705    556.47779    662.66042            0    1804.7453   -4133.3728   -61.705909    37.944391    37.944391    37.944391            0            0            0    0.7916841 
Loop time of 105.48 on 48 procs for 50000 steps with 2000 atoms

Performance: 40.956 ns/day, 0.586 hours/ns, 474.023 timesteps/s
41.2% CPU use with 48 MPI tasks x 1 OpenMP threads

MPI task timing breakdown:
Section |  min time  |  avg time  |  max time  |%varavg| %total
---------------------------------------------------------------
Pair    | 10.475     | 13.688     | 16.854     |  40.6 | 12.98
Bond    | 0.51803    | 0.64438    | 0.73937    |   6.3 |  0.61
Kspace  | 14.625     | 20.125     | 24.91      |  50.6 | 19.08
Neigh   | 3.3214     | 3.8589     | 4.2504     |  16.6 |  3.66
Comm    | 34.787     | 39.202     | 45.782     |  45.0 | 37.17
Output  | 0.065366   | 0.066109   | 0.075665   |   0.6 |  0.06
Modify  | 19.27      | 22.309     | 25.413     |  36.0 | 21.15
Other   |            | 5.586      |            |       |  5.30

Nlocal:    41.6667 ave 54 max 28 min
Histogram: 2 3 1 7 7 11 8 2 2 5
Nghost:    2406.79 ave 2454 max 2357 min
Histogram: 1 3 5 9 4 8 9 4 4 1
Neighs:    10766.6 ave 14915 max 7192 min
Histogram: 5 1 4 7 9 12 4 2 3 1

Total # of neighbors = 516797
Ave neighs/atom = 258.399
Ave special neighs/atom = 4.8
Neighbor list builds = 4739
Dangerous builds = 0

unfix npt_density

fix reshape_box all deform 1 x final 0.0 37.4495 y final 0.0 37.4495 z final 0.0 37.4495 units box

run 100000
Ewald initialization ...
  using 12-bit tables for long-range coulomb (src/kspace.cpp:332)
  G vector (1/distance) = 0.148792
  estimated absolute RMS force accuracy = 0.0374747
  estimated relative force accuracy = 0.000112854
  KSpace vectors: actual max1d max3d = 128 4 364
                  kxmax kymax kzmax  = 4 4 4
Per MPI rank memory allocation (min/avg/max) = 17.62 | 17.8 | 18.12 Mbytes
Step Volume Temp Press KinEng PotEng TotEng Enthalpy E_vdwl E_coul E_pair E_bond E_angle E_dihed E_impro E_mol E_long E_tail Lx Ly Lz Xy Xz Yz Density 
   50519    54631.454    332.67638   -1222.6133    1982.2985   -1266.6251    715.67348   -258.43599   -1650.0385     2750.116   -3071.3703    585.60705    556.47779    662.66042            0    1804.7453   -4171.4478   -61.705909    37.944391    37.944391    37.944391            0            0            0    0.7916841 
   51000    54621.173    332.67638   -1093.8338    1982.2985   -1267.0154    715.28311   -156.05813   -1649.7576    2750.0604    -3071.146    584.99238    556.47779    662.66042            0    1804.1306   -4171.4488   -61.717524    37.942011    37.942011    37.942011            0            0            0   0.79183312 
   52000    54599.803    332.67638   -826.18284    1982.2985   -1267.9404    714.35812    56.483499   -1649.1701    2749.7711   -3070.8498    583.77115    556.47779    662.66042            0    1802.9094   -4171.4508   -61.741681    37.937062    37.937062    37.937062            0            0            0   0.79214305 
   53000    54578.438    332.67638   -557.92679    1982.2985   -1268.6811    713.61748    269.52419    -1648.576    2749.5794   -3070.4493    582.63005    556.47779    662.66042            0    1801.7683   -4171.4528    -61.76585    37.932113    37.932113    37.932113            0            0            0   0.79245313 
   54000    54557.078    332.67638   -289.40627    1982.2985   -1269.3173    712.98122    482.71251   -1647.9805    2749.4107   -3070.0246     581.5691    556.47779    662.66042            0    1800.7073   -4171.4548   -61.790031    37.927164    37.927164    37.927164            0            0            0   0.79276338 
   55000    54535.725    332.67638   -21.011549    1982.2985   -1269.9375    712.36099    695.64951   -1647.3835    2749.1762    -3069.664    580.58829    556.47779    662.66042            0    1799.7265   -4171.4567   -61.814226    37.922215    37.922215    37.922215            0            0            0   0.79307379 
   56000    54514.376    332.67638    247.45142    1982.2985   -1270.4961    711.80243    908.53528   -1646.7813    2748.9181   -3069.3219    579.68762    556.47779    662.66042            0    1798.8258   -4171.4587   -61.838432    37.917266    37.917266    37.917266            0            0            0   0.79338437 
   57000    54493.034    332.67638     516.6284    1982.2985   -1270.8479    711.45069    1122.0282   -1646.1771    2748.7847   -3068.8532    578.86709    556.47779    662.66042            0    1798.0053   -4171.4607   -61.862652    37.912317    37.912317    37.912317            0            0            0    0.7936951 
   58000    54471.697    332.67638    785.49448    1982.2985   -1271.2233    711.07527    1335.0829   -1645.5667    2748.5413   -3068.4882    578.12671    556.47779    662.66042            0    1797.2649   -4171.4627   -61.886884    37.907368    37.907368    37.907368            0            0            0     0.794006 
   59000    54450.365    332.67638    1055.1396    1982.2985   -1271.3773    710.92122    1548.8104   -1644.9538    2748.4365    -3067.982    577.46647    556.47779    662.66042            0    1796.6047   -4171.4647   -61.911129    37.902419    37.902419    37.902419            0            0            0   0.79431706 
   60000    54429.039    332.67638    1325.2726    1982.2985   -1271.3758    710.92278    1762.9132   -1644.3369    2748.4033   -3067.4003    576.88637    556.47779    662.66042            0    1796.0246   -4171.4667   -61.935386     37.89747     37.89747     37.89747            0            0            0   0.79462828 
   61000    54407.719    332.67638    1594.6912    1982.2985   -1271.4916    710.80694    1976.1637   -1643.7194    2748.1718   -3067.0162    576.38642    556.47779    662.66042            0    1795.5246   -4171.4687   -61.959657    37.892522    37.892522    37.892522            0            0            0   0.79493967 
   62000    54386.404    332.67638     1864.404    1982.2985    -1271.493    710.80552    2189.5947   -1643.0928    2747.9657   -3066.5978    575.96661    556.47779    662.66042            0    1795.1048   -4171.4707   -61.983939    37.887573    37.887573    37.887573            0            0            0   0.79525122 
   63000    54365.095    332.67638    2134.0285    1982.2985   -1271.4697    710.82883    2402.8129   -1642.4643    2747.7022   -3066.2349    575.62694    556.47779    662.66042            0    1794.7651   -4171.4727   -62.008235    37.882624    37.882624    37.882624            0            0            0   0.79556293 
   64000    54343.791    332.67638    2404.3439    1982.2985   -1271.2449    711.05359    2616.6126   -1641.8324    2747.5565   -3065.7506    575.36741    556.47779    662.66042            0    1794.5056   -4171.4747   -62.032543    37.877675    37.877675    37.877675            0            0            0    0.7958748 
   65000    54322.493    332.67638    2674.8627    1982.2985   -1270.9296    711.36891    2830.4964   -1641.1984    2747.4192   -3065.2559    575.18803    556.47779    662.66042            0    1794.3262   -4171.4767   -62.056864    37.872726    37.872726    37.872726            0            0            0   0.79618684 
   66000    54301.201    332.67638    2945.2796    1982.2985   -1270.5902    711.70836    3044.1557   -1640.5566    2747.2181   -3064.8172    575.08879    556.47779    662.66042            0     1794.227   -4171.4786   -62.081198    37.867777    37.867777    37.867777            0            0            0   0.79649904 
   67000    54279.914    332.67638    3215.5564    1982.2985   -1270.2386    712.05992    3257.5486   -1639.9153    2746.9495   -3064.4465    575.06969    556.47779    662.66042            0    1794.2079   -4171.4806   -62.105544    37.862828    37.862828    37.862828            0            0            0    0.7968114 
   68000    54258.632    332.67638    3486.4634    1982.2985   -1269.6991    712.59949    3471.4606    -1639.269    2746.7836    -3063.968    575.13073    556.47779    662.66042            0    1794.2689   -4171.4826   -62.129903    37.857879    37.857879    37.857879            0            0            0   0.79712393 
   69000    54237.356    332.67638    3757.1801    1982.2985   -1269.1564    713.14215    3685.0574   -1638.6173    2746.5354   -3063.5665    575.27192    556.47779    662.66042            0    1794.4101   -4171.4846   -62.154275     37.85293     37.85293     37.85293            0            0            0   0.79743662 
   70000    54216.086    332.67638    4028.5967    1982.2985    -1268.411    713.88754    3899.2426   -1637.9627    2746.4069   -3063.0425    575.49325    556.47779    662.66042            0    1794.6315   -4171.4866    -62.17866    37.847981    37.847981    37.847981            0            0            0   0.79774947 
   71000    54194.821    332.67638    4299.9971    1982.2985   -1267.6247    714.67381    4113.2878   -1637.3063    2746.2372   -3062.5577    575.79472    556.47779    662.66042            0    1794.9329   -4171.4886   -62.203057    37.843032    37.843032    37.843032            0            0            0   0.79806249 
   72000    54173.562    332.67638    4571.4308    1982.2985   -1266.7854    715.51309    4327.2444   -1636.6458    2746.0364      -3062.1    576.17634    556.47779    662.66042            0    1795.3145   -4171.4906   -62.227467    37.838084    37.838084    37.838084            0            0            0   0.79837567 
   73000    54152.309    332.67638    4843.1671    1982.2985   -1265.8332    716.46533     4541.385   -1635.9827    2745.8658   -3061.6095     576.6381    556.47779    662.66042            0    1795.7763   -4171.4926    -62.25189    37.833135    37.833135    37.833135            0            0            0   0.79868901 
   74000    54131.061    332.67638    5115.3147    1982.2985   -1264.7428     717.5557    4755.8204   -1635.3149    2745.7484    -3061.061       577.18    556.47779    662.66042            0    1796.3182   -4171.4946   -62.276326    37.828186    37.828186    37.828186            0            0            0   0.79900252 
   75000    54109.818    332.67638    5387.3596    1982.2985   -1263.6297    718.66881    4970.0293   -1634.6415    2745.5681     -3060.57    577.80204    556.47779    662.66042            0    1796.9402   -4171.4966   -62.300775    37.823237    37.823237    37.823237            0            0            0    0.7993162 
   76000    54088.581    332.67638    5659.3288    1982.2985   -1262.4881     719.8104    5184.0388   -1633.9644    2745.3323   -3060.1306    578.50423    556.47779    662.66042            0    1797.6424   -4171.4985   -62.325236    37.818288    37.818288    37.818288            0            0            0   0.79963003 
   77000     54067.35    332.67638    5931.6896    1982.2985   -1261.2144     721.0841    5398.3212   -1633.2859    2745.1473   -3059.6392    579.28655    556.47779    662.66042            0    1798.4248   -4171.5005    -62.34971    37.813339    37.813339    37.813339            0            0            0   0.79994404 
   78000    54046.124    332.67638    6204.2481    1982.2985   -1259.8504    722.44815    5612.6817   -1632.6019    2744.9668   -3059.1376    580.14903    556.47779    662.66042            0    1799.2872   -4171.5025   -62.374197     37.80839     37.80839     37.80839            0            0            0    0.8002582 
   79000    54024.904    332.67638    6476.3407    1982.2985   -1258.5469     723.7516    5826.4462   -1631.9168    2744.6445   -3058.7768    581.09164    556.47779    662.66042            0    1800.2298   -4171.5045   -62.398697    37.803441    37.803441    37.803441            0            0            0   0.80057253 
   80000    54003.689    332.67638    6749.1599    1982.2985   -1257.0346    725.26393    6040.8241   -1631.2266    2744.4458   -3058.2872     582.1144    556.47779    662.66042            0    1801.2526   -4171.5065   -62.423209    37.798492    37.798492    37.798492            0            0            0   0.80088703 
   81000     53982.48    332.67638    7022.4736    1982.2985   -1255.3677    726.93084    6255.5775   -1630.5367    2744.3219   -3057.7232     583.2173    556.47779    662.66042            0    1802.3555   -4171.5085   -62.447734    37.793543    37.793543    37.793543            0            0            0   0.80120169 
   82000    53961.276    332.67638    7295.7475    1982.2985   -1253.6644    728.63419    6470.1677   -1629.8422    2744.1498   -3057.2029    584.40034    556.47779    662.66042            0    1803.5385   -4171.5105   -62.472273    37.788594    37.788594    37.788594            0            0            0   0.80151651 
   83000    53940.078    332.67638    7569.3904    1982.2985   -1251.8325    730.46604    6685.0081   -1629.1426    2744.0208   -3056.6342    585.66353    556.47779    662.66042            0    1804.8017   -4171.5125   -62.496824    37.783645    37.783645    37.783645            0            0            0    0.8018315 
   84000    53918.886    332.67638    7842.8884    1982.2985   -1249.9867    732.31184    6899.5801   -1628.4357    2743.8184   -3056.1318    587.00685    556.47779    662.66042            0    1806.1451   -4171.5145   -62.521388    37.778697    37.778697    37.778697            0            0            0   0.80214666 
   85000    53897.699    332.67638     8116.724    1982.2985   -1248.0205    734.27801    7114.3693   -1627.7256     2743.653   -3055.5891    588.43032    556.47779    662.66042            0    1807.5685   -4171.5165   -62.545965    37.773748    37.773748    37.773748            0            0            0   0.80246198 
   86000    53876.518    332.67638    8391.0461    1982.2985   -1245.8999    736.39861    7329.5267   -1627.0112    2743.5576   -3054.9721    589.93394    556.47779    662.66042            0    1809.0721   -4171.5184   -62.570554    37.768799    37.768799    37.768799            0            0            0   0.80277746 
   87000    53855.342    332.67638    8665.6035    1982.2985   -1243.6825    738.61607     7544.797   -1626.2949    2743.4769   -3054.3384    591.51769    556.47779    662.66042            0    1810.6559   -4171.5204   -62.595157     37.76385     37.76385     37.76385            0            0            0   0.80309311 
   88000    53834.172    332.67638    8939.7783    1982.2985   -1241.5064     740.7921    7759.5567   -1625.5767    2743.2728   -3053.8262    593.18159    556.47779    662.66042            0    1812.3198   -4171.5224   -62.619773    37.758901    37.758901    37.758901            0            0            0   0.80340893 
   89000    53813.007    332.67638    9214.2757    1982.2985   -1239.2116    743.08699    7974.5198   -1624.8507    2743.0997   -3053.2754    594.92563    556.47779    662.66042            0    1814.0638   -4171.5244   -62.644401    37.753952    37.753952    37.753952            0            0            0   0.80372491 
   90000    53791.848    332.67638    9488.8653    1982.2985   -1236.8523    745.44628    8189.4508   -1624.1234    2742.9095   -3052.7403    596.74982    556.47779    662.66042            0     1815.888   -4171.5264   -62.669042    37.749003    37.749003    37.749003            0            0            0   0.80404106 
   91000    53770.694    332.67638    9763.5878    1982.2985   -1234.4185    747.88005    8404.3921    -1623.393    2742.7106   -3052.2108    598.65415    556.47779    662.66042            0    1817.7924   -4171.5284   -62.693697    37.744054    37.744054    37.744054            0            0            0   0.80435737 
   92000    53749.546    332.67638    10038.826    1982.2985   -1231.8252    750.47336    8619.7283   -1622.6602    2742.5886    -3051.602    600.63862    556.47779    662.66042            0    1819.7768   -4171.5304   -62.718364    37.739105    37.739105    37.739105            0            0            0   0.80467385 
   93000    53728.403    332.67638    10313.962    1982.2985   -1229.2072    753.09132    8834.8402   -1621.9178    2742.4015   -3051.0487    602.70323    556.47779    662.66042            0    1821.8414   -4171.5324   -62.743044    37.734156    37.734156    37.734156            0            0            0    0.8049905 
   94000    53707.266    332.67638    10589.083    1982.2985   -1226.5495    755.74905    9049.8114   -1621.1756    2742.1743   -3050.5357    604.84798    556.47779    662.66042            0    1823.9862   -4171.5343   -62.767737    37.729207    37.729207    37.729207            0            0            0   0.80530731 
   95000    53686.135    332.67638    10864.723    1982.2985   -1223.7296    758.56895    9265.1819   -1620.4263     2742.022   -3049.9407    607.07288    556.47779    662.66042            0    1826.2111   -4171.5363   -62.792443    37.724259    37.724259    37.724259            0            0            0   0.80562428 
   96000    53665.009    332.67638    11140.432    1982.2985   -1220.8498    761.44872    9480.4976   -1619.6744    2741.8468   -3049.3659    609.37792    556.47779    662.66042            0    1828.5161   -4171.5383   -62.817162     37.71931     37.71931     37.71931            0            0            0   0.80594143 
   97000    53643.889    332.67638    11415.743    1982.2985   -1218.0147    764.28382    9695.2885   -1618.9203    2741.5446    -3048.916     611.7631    556.47779    662.66042            0    1830.9013   -4171.5403   -62.841894    37.714361    37.714361    37.714361            0            0            0   0.80625874 
   98000    53622.774    332.67638    11692.069    1982.2985    -1214.907    767.39159    9910.9771   -1618.1588    2741.4275   -3048.2736    614.22843    556.47779    662.66042            0    1833.3666   -4171.5423   -62.866639    37.709412    37.709412    37.709412            0            0            0   0.80657622 
   99000    53601.665    332.67638     11967.79    1982.2985   -1211.8883    770.41019    10125.935   -1617.3918    2741.1356   -3047.8005     616.7739    556.47779    662.66042            0    1835.9121   -4171.5443   -62.891397    37.704463    37.704463    37.704463            0            0            0   0.80689386 
  100000    53580.561    332.67638     12243.77    1982.2985   -1208.7698    773.52873    10341.025   -1616.6268    2740.8655   -3047.3075    619.39951    556.47779    662.66042            0    1838.5377   -4171.5463   -62.916168    37.699514    37.699514    37.699514            0            0            0   0.80721167 
  101000    53559.463    332.67638    12519.945    1982.2985   -1205.5636    776.73489    10556.187   -1615.8596    2740.6007   -3046.8071    622.10526    556.47779    662.66042            0    1841.2435   -4171.5483   -62.940952    37.694565    37.694565    37.694565            0            0            0   0.80752965 
  102000     53538.37    332.67638    12796.635    1982.2985   -1202.1967    780.10184    10771.743   -1615.0852    2740.4094   -3046.2261    624.89116    556.47779    662.66042            0    1844.0294   -4171.5502   -62.965749    37.689616    37.689616    37.689616            0            0            0   0.80784779 
  103000    53517.283    332.67638    13073.059    1982.2985   -1198.8444     783.4541    10986.907   -1614.3077    2740.1201   -3045.7398     627.7572    556.47779    662.66042            0    1846.8954   -4171.5522   -62.990559    37.684667    37.684667    37.684667            0            0            0   0.80816611 
  104000    53496.201    332.67638    13350.044    1982.2985   -1195.3228    786.97574     11202.51   -1613.5273    2739.9171   -3045.1644    630.70338    556.47779    662.66042            0    1849.8416   -4171.5542   -63.015382    37.679718    37.679718    37.679718            0            0            0   0.80848458 
  105000    53475.125    332.67638    13627.546    1982.2985   -1191.6412    790.65735    11418.506   -1612.7418    2739.7889   -3044.5091    633.72971    556.47779    662.66042            0    1852.8679   -4171.5562   -63.040218    37.674769    37.674769    37.674769            0            0            0   0.80880323 
  106000    53454.055    332.67638      13904.8    1982.2985   -1187.9693    794.32928     11634.13   -1611.9509    2739.5655   -3043.9436    636.83618    556.47779    662.66042            0    1855.9744   -4171.5582   -63.065068    37.669821    37.669821    37.669821            0            0            0   0.80912204 
  107000     53432.99    332.67638    14182.412    1982.2985   -1184.1726    798.12598    11849.988   -1611.1546    2739.3813   -3043.3336    640.02279    556.47779    662.66042            0     1859.161   -4171.5602    -63.08993    37.664872    37.664872    37.664872            0            0            0   0.80944103 
  108000     53411.93    332.67638    14460.782    1982.2985   -1180.1639    802.13467     12066.48   -1610.3571    2739.3276   -3042.5916    643.28954    556.47779    662.66042            0    1862.4277   -4171.5622   -63.114805    37.659923    37.659923    37.659923            0            0            0   0.80976018 
  109000    53390.876    332.67638    14739.109    1982.2985   -1176.1188    806.17978    12282.804   -1609.5523    2739.2231   -3041.8934    646.63644    556.47779    662.66042            0    1865.7746   -4171.5642   -63.139694    37.654974    37.654974    37.654974            0            0            0   0.81007949 
  110000    53369.828    332.67638    15017.556    1982.2985   -1172.0029    810.29568    12499.123   -1608.7447    2739.1063   -3041.2045    650.06347    556.47779    662.66042            0    1869.2017   -4171.5661   -63.164595    37.650025    37.650025    37.650025            0            0            0   0.81039898 
  111000    53348.785    332.67638    15295.538    1982.2985   -1167.9471     814.3514     12714.85    -1607.937    2738.8492    -3040.656    653.57066    556.47779    662.66042            0    1872.7089   -4171.5681    -63.18951    37.645076    37.645076    37.645076            0            0            0   0.81071863 
  112000    53327.748    332.67638    15574.017    1982.2985   -1163.7338    818.56474    12930.953   -1607.1192    2738.6593     -3040.03    657.15798    556.47779    662.66042            0    1876.2962   -4171.5701   -63.214437    37.640127    37.640127    37.640127            0            0            0   0.81103845 
  113000    53306.716    332.67638    15852.793    1982.2985   -1159.4102    822.88835    13147.227   -1606.2976    2738.4958   -3039.3739    660.82545    556.47779    662.66042            0    1879.9637   -4171.5721   -63.239378    37.635178    37.635178    37.635178            0            0            0   0.81135844 
  114000     53285.69    332.67638    16131.131    1982.2985     -1155.14    827.15857    13362.937   -1605.4746    2738.1974   -3038.8512    664.57306    556.47779    662.66042            0    1883.7113   -4171.5741   -63.264332    37.630229    37.630229    37.630229            0            0            0    0.8116786 
  115000    53264.669    332.67638    16410.157    1982.2985   -1150.6726    831.62595    13579.209   -1604.6465     2738.011   -3038.2116    668.40081    556.47779    662.66042            0     1887.539   -4171.5761   -63.289299     37.62528     37.62528     37.62528            0            0            0   0.81199892 
  116000    53243.654    332.67638    16689.293    1982.2985   -1146.1372    836.16138    13795.465   -1603.8166    2737.8106   -3037.5841     672.3087    556.47779    662.66042            0    1891.4469   -4171.5781   -63.314279    37.620331    37.620331    37.620331            0            0            0   0.81231942 
  117000    53222.644    332.67638    16968.706    1982.2985   -1141.4964    840.80212    14011.872   -1602.9842    2737.6329   -3036.9314    676.29674    556.47779    662.66042            0    1895.4349     -4171.58   -63.339273    37.615383    37.615383    37.615383            0            0            0   0.81264008 
  118000     53201.64    332.67638    17248.157    1982.2985   -1136.8022    845.49635    14228.192   -1602.1469    2737.4236   -3036.3053    680.36492    556.47779    662.66042            0    1899.5031    -4171.582   -63.364279    37.610434    37.610434    37.610434            0            0            0   0.81296091 
  119000    53180.642    332.67638    17527.575    1982.2985   -1132.0699     850.2286    14444.355   -1601.3035    2737.1661   -3035.7214    684.51324    556.47779    662.66042            0    1903.6515    -4171.584   -63.389299    37.605485    37.605485    37.605485            0            0            0   0.81328192 
  120000    53159.649    332.67638     17807.39    1982.2985   -1127.2049    855.09365    14660.788   -1600.4547    2736.9559   -3035.0848    688.74171    556.47779    662.66042            0    1907.8799    -4171.586   -63.414332    37.600536    37.600536    37.600536            0            0            0   0.81360309 
  121000    53138.661    332.67638    18086.999    1982.2985   -1122.3409    859.95761    14876.891   -1599.6021    2736.6607   -3034.5295    693.05032    556.47779    662.66042            0    1912.1885    -4171.588   -63.439378    37.595587    37.595587    37.595587            0            0            0   0.81392442 
  122000    53117.679    332.67638    18368.017    1982.2985   -1117.1207    865.17785    15094.272   -1598.7441    2736.6361    -3033.698    697.43907    556.47779    662.66042            0    1916.5773     -4171.59   -63.464437    37.590638    37.590638    37.590638            0            0            0   0.81424593 
  123000    53096.702    332.67638    18648.565    1982.2985   -1111.9617    870.33679    15311.057   -1597.8867    2736.4707   -3033.0079    701.90796    556.47779    662.66042            0    1921.0462    -4171.592   -63.489509    37.585689    37.585689    37.585689            0            0            0   0.81456761 
  124000    53075.731    332.67638    18929.323    1982.2985   -1106.7099     875.5886    15527.927   -1597.0203    2736.3091   -3032.3052      706.457    556.47779    662.66042            0    1925.5952   -4171.5939   -63.514595     37.58074     37.58074     37.58074            0            0            0   0.81488946 
  125000    53054.766    332.67638    19209.721    1982.2985   -1101.4945    880.80401    15744.313   -1596.1533    2736.0304   -3031.7189    711.08618    556.47779    662.66042            0    1930.2244   -4171.5959   -63.539694    37.575791    37.575791    37.575791            0            0            0   0.81521148 
  126000    53033.806    332.67638    19490.555    1982.2985   -1096.1378    886.16078    15961.007   -1595.2798    2735.8063   -3031.0715     715.7955    556.47779    662.66042            0    1934.9337   -4171.5979   -63.564806    37.570842    37.570842    37.570842            0            0            0   0.81553366 
  127000    53012.852    332.67638    19771.771    1982.2985   -1090.6542    891.64439    16177.953   -1594.4065    2735.6291   -3030.3773    720.58497    556.47779    662.66042            0    1939.7232   -4171.5999   -63.589931    37.565893    37.565893    37.565893            0            0            0   0.81585602 
  128000    52991.903    332.67638    20053.265    1982.2985   -1085.0638    897.23475     16395.05   -1593.5268    2735.4721   -3029.6566    725.45457    556.47779    662.66042            0    1944.5928   -4171.6019    -63.61507    37.560945    37.560945    37.560945            0            0            0   0.81617854 
  129000    52970.959    332.67638    20334.935    1982.2985   -1079.3903    902.90819    16612.197   -1592.6436    2735.3146   -3028.9329    730.40432    556.47779    662.66042            0    1949.5425   -4171.6039   -63.640221    37.555996    37.555996    37.555996            0            0            0   0.81650124 
  130000    52950.022    332.67638    20616.195    1982.2985   -1073.7616    908.53689    16828.811   -1591.7526    2735.0244   -3028.3341    735.43422    556.47779    662.66042            0    1954.5724   -4171.6059   -63.665386    37.551047    37.551047    37.551047            0            0            0   0.81682411 
  131000    52929.089    332.67638    20897.645    1982.2985   -1068.0462    914.25238    17045.489   -1590.8564    2734.7356   -3027.7286    740.54425    556.47779    662.66042            0    1959.6825   -4171.6078   -63.690565    37.546098    37.546098    37.546098            0            0            0   0.81714714 
  132000    52908.162    332.67638    21179.487    1982.2985   -1062.2019    920.09666    17262.428     -1589.96    2734.4953   -3027.0745    745.73443    556.47779    662.66042            0    1964.8726   -4171.6098   -63.715756    37.541149    37.541149    37.541149            0            0            0   0.81747035 
  133000    52887.241    332.67638    21461.612    1982.2985   -1056.2514    926.04709     17479.52   -1589.0606     2734.278   -3026.3944    751.00475    556.47779    662.66042            0     1970.143   -4171.6118   -63.740961      37.5362      37.5362      37.5362            0            0            0   0.81779373 
  134000    52866.325    332.67638    21744.209    1982.2985   -1050.1528    932.14572    17696.955   -1588.1568    2734.1244   -3025.6462    756.35522    556.47779    662.66042            0    1975.4934   -4171.6138   -63.766179    37.531251    37.531251    37.531251            0            0            0   0.81811728 
  135000    52845.415    332.67638    22026.867    1982.2985   -1043.9951    938.30343    17914.326   -1587.2455    2733.9421   -3024.9191    761.78582    556.47779    662.66042            0     1980.924   -4171.6158   -63.791411    37.526302    37.526302    37.526302            0            0            0     0.818441 
  136000     52824.51    332.67638    22309.509    1982.2985   -1037.7976    944.50098    18131.553   -1586.3322    2733.7176   -3024.2323    767.29657    556.47779    662.66042            0    1986.4348   -4171.6178   -63.816656    37.521353    37.521353    37.521353            0            0            0   0.81876488 
  137000    52803.611    332.67638    22592.488    1982.2985     -1031.48    950.81856    18348.989   -1585.4106    2733.5247   -3023.5057    772.88746    556.47779    662.66042            0    1992.0257   -4171.6197   -63.841914    37.516404    37.516404    37.516404            0            0            0   0.81908895 
  138000    52782.717    332.67638    22876.005    1982.2985   -1024.9994    957.29919    18566.831   -1584.4829    2733.4086   -3022.6961     778.5585    556.47779    662.66042            0    1997.6967   -4171.6217   -63.867185    37.511455    37.511455    37.511455            0            0            0   0.81941318 
  139000    52761.829    332.67638    23158.852    1982.2985   -1018.6253    963.67325    18783.881   -1583.5597    2733.1103   -3022.0732    784.30968    556.47779    662.66042            0    2003.4479   -4171.6237    -63.89247    37.506507    37.506507    37.506507            0            0            0   0.81973758 
  140000    52740.946    332.67638    23441.871    1982.2985   -1012.1656    970.13289    19000.978   -1582.6237    2732.8046   -3021.4449      790.141    556.47779    662.66042            0    2009.2792   -4171.6257   -63.917768    37.501558    37.501558    37.501558            0            0            0   0.82006215 
  141000    52720.069    332.67638    23725.706    1982.2985   -1005.4843     976.8142    19218.754   -1581.6871    2732.6398    -3020.675    796.05246    556.47779    662.66042            0    2015.1907   -4171.6277    -63.94308    37.496609    37.496609    37.496609            0            0            0    0.8203869 
  142000    52699.197    332.67638    24010.178    1982.2985   -998.62047    983.67807     19437.03   -1580.7486    2732.5755   -3019.8027    802.04407    556.47779    662.66042            0    2021.1823   -4171.6297   -63.968404     37.49166     37.49166     37.49166            0            0            0   0.82071182 
  143000    52678.331    332.67638     24294.37    1982.2985   -991.77313    990.52541    19654.904   -1579.8049    2732.4094   -3019.0272    808.11581    556.47779    662.66042            0     2027.254   -4171.6316   -63.993743    37.486711    37.486711    37.486711            0            0            0    0.8210369 
  144000    52657.471    332.67638    24578.674    1982.2985   -984.85573    997.44281    19872.763   -1578.8532    2732.2252   -3018.2616     814.2677    556.47779    662.66042            0    2033.4059   -4171.6336   -64.019094    37.481762    37.481762    37.481762            0            0            0   0.82136216 
  145000    52636.615    332.67638    24863.178    1982.2985   -977.85125    1004.4473    20090.692   -1577.8993    2732.0457   -3017.4892    820.49974    556.47779    662.66042            0    2039.6379   -4171.6356   -64.044459    37.476813    37.476813    37.476813            0            0            0    0.8216876 
  146000    52615.766    332.67638    25147.622    1982.2985   -970.81772    1011.4808    20308.432   -1576.9448    2731.8146   -3016.7678    826.81191    556.47779    662.66042            0    2045.9501   -4171.6376   -64.069838    37.471864    37.471864    37.471864            0            0            0    0.8220132 
  147000    52594.922    332.67638    25432.913    1982.2985   -963.55448    1018.7441    20526.881   -1575.9851    2731.7278   -3015.8969    833.20423    556.47779    662.66042            0    2052.3424   -4171.6396    -64.09523    37.466915    37.466915    37.466915            0            0            0   0.82233898 
  148000    52574.083    332.67638     25718.25    1982.2985   -956.23656     1026.062    20745.249   -1575.0204    2731.6105   -3015.0515     839.6767    556.47779    662.66042            0    2058.8149   -4171.6416   -64.120635    37.461966    37.461966    37.461966            0            0            0   0.82266492 
  149000     52553.25    332.67638    26003.188    1982.2985   -948.96186    1033.3367    20963.096   -1574.0514    2731.3656   -3014.3294     846.2293    556.47779    662.66042            0    2065.3675   -4171.6435   -64.146053    37.457017    37.457017    37.457017            0            0            0   0.82299104 
  150000    52532.422    332.67638    26288.214    1982.2985   -941.62199    1040.6766    21180.905   -1573.0741    2731.0974   -3013.6222    852.86205    556.47779    662.66042            0    2072.0003   -4171.6455   -64.171486    37.452068    37.452068    37.452068            0            0            0   0.82331734 
  150519    52521.615    332.67638    26435.999    1982.2985   -937.82662    1044.4719    21293.756   -1572.5648    2730.9105   -3013.3009    856.33603    556.47779    662.66042            0    2075.4742   -4171.6466    -64.18469      37.4495      37.4495      37.4495            0            0            0   0.82348675 
Loop time of 150.232 on 48 procs for 100000 steps with 2000 atoms

Performance: 57.511 ns/day, 0.417 hours/ns, 665.638 timesteps/s
44.9% CPU use with 48 MPI tasks x 1 OpenMP threads

MPI task timing breakdown:
Section |  min time  |  avg time  |  max time  |%varavg| %total
---------------------------------------------------------------
Pair    | 17.616     | 26.737     | 38.349     |  85.3 | 17.80
Bond    | 0.79414    | 1.1029     | 1.4497     |  13.1 |  0.73
Kspace  | 26.926     | 37.266     | 49.765     |  83.0 | 24.81
Neigh   | 0.0061989  | 0.0074555  | 0.0083898  |   0.9 |  0.00
Comm    | 60.853     | 69.939     | 83.718     |  74.9 | 46.55
Output  | 0.11396    | 0.12062    | 0.13298    |   1.1 |  0.08
Modify  | 0.4623     | 0.52104    | 0.71158    |   7.5 |  0.35
Other   |            | 14.54      |            |       |  9.68

Nlocal:    41.6667 ave 56 max 29 min
Histogram: 2 4 6 6 10 10 2 2 4 2
Nghost:    2472.98 ave 2531 max 2419 min
Histogram: 4 3 5 5 7 7 7 5 2 3
Neighs:    11165.1 ave 14609 max 7805 min
Histogram: 4 1 4 7 8 10 6 1 3 4

Total # of neighbors = 535926
Ave neighs/atom = 267.963
Ave special neighs/atom = 4.8
Neighbor list builds = 9
Dangerous builds = 0
# >>>>>>>>>  Equilibration run <<<<<<<<<<<<<<<<<<<<<<<<<<<<<<<<<<

fix             NVT_equib all nvt temp ${simulationTemp} ${simulationTemp} 100
fix             NVT_equib all nvt temp 333 ${simulationTemp} 100
fix             NVT_equib all nvt temp 333 333 100

print           "Step Density Temperature Pressure KinEng PotEng TotEng" file Properties_equib_octanol_333.txt
Step Density Temperature Pressure KinEng PotEng TotEng
fix             PRINT_equib all print ${printfreq} "$(v_step) $(v_density) $(v_temp) $(v_press) $(v_pe) $(v_ke) $(v_etotal) $(v_enthalpy)" append Properties_equib_octanol_333.txt title ""
fix             PRINT_equib all print 1000 "$(v_step) $(v_density) $(v_temp) $(v_press) $(v_pe) $(v_ke) $(v_etotal) $(v_enthalpy)" append Properties_equib_octanol_333.txt title ""
# The 'print' and fix print' commands as used above will create a file named 'Properties_equib.txt' which allows you to quickly make plots to test for equilibration


run             ${NVT_equib}
run             1000000
Ewald initialization ...
  using 12-bit tables for long-range coulomb (src/kspace.cpp:332)
  G vector (1/distance) = 0.149129
  estimated absolute RMS force accuracy = 0.0367822
  estimated relative force accuracy = 0.000110768
  KSpace vectors: actual max1d max3d = 128 4 364
                  kxmax kymax kzmax  = 4 4 4
Per MPI rank memory allocation (min/avg/max) = 17.62 | 17.8 | 18.12 Mbytes
Step Volume Temp Press KinEng PotEng TotEng Enthalpy E_vdwl E_coul E_pair E_bond E_angle E_dihed E_impro E_mol E_long E_tail Lx Ly Lz Xy Xz Yz Density 
  150519    52521.615    332.67638    26436.322    1982.2985   -937.81729    1044.4813    21294.013   -1572.5638    2740.3333   -3013.2982    856.34275    556.47779    662.66042            0     2075.481   -4181.0677    -64.18469      37.4495      37.4495      37.4495            0            0            0   0.82348675 
151000 0.8234867517405469739 326.7441418738760035 -5694.5839444887997161 -1316.3358445645599204 1946.9504815306700038 630.61463696610894658 -3731.2879233364801621
  151000    52521.615    326.74414   -5694.5839    1946.9505   -1316.3358    630.61464   -3731.2879   -1698.9487    2692.1362   -3187.3762    678.60104    521.66731    670.77205            0    1871.0404   -4180.5637    -64.18469      37.4495      37.4495      37.4495            0            0            0   0.82348675 
152000 0.8234867517405469739 338.15914091298901667 -2726.7008838449501127 -1341.2759508050799013 2014.9683432998699573 673.69239249479596765 -1414.8892637530100274
  152000    52521.615    338.15914   -2726.7009    2014.9683    -1341.276    673.69239   -1414.8893    -1739.357    2718.3079   -3201.1807    669.98228    542.07223    647.85028            0    1859.9048   -4180.1317    -64.18469      37.4495      37.4495      37.4495            0            0            0   0.82348675 
153000 0.8234867517405469739 338.24520847091201858 -2416.2358706597501623 -1361.8794626566800616 2015.4811888321000879 653.60172617541900308 -1197.1718392447000952
  153000    52521.615    338.24521   -2416.2359    2015.4812   -1361.8795    653.60173   -1197.1718   -1681.8678    2658.2827   -3202.2762    655.32783    541.27244    643.79643            0    1840.3967    -4178.691    -64.18469      37.4495      37.4495      37.4495            0            0            0   0.82348675 
154000 0.8234867517405469739 327.0786724992129848 -811.06467059166504896 -1335.4964439123300508 1948.9438288584999555 613.44738494617195101 -7.8069679110925598309
  154000    52521.615    327.07867   -811.06467    1948.9438   -1335.4964    613.44738   -7.8069679   -1709.3319    2649.0126    -3239.876    697.52459    540.06948    666.78553            0    1904.3796   -4179.5568    -64.18469      37.4495      37.4495      37.4495            0            0            0   0.82348675 
155000 0.8234867517405469739 327.46978888174498934 2279.7133997090299999 -1407.6997487864700815 1951.2743503024000802 543.5746015159329545 2289.7755201222198593
  155000    52521.615    327.46979    2279.7134    1951.2744   -1407.6997     543.5746    2289.7755   -1758.5857    2692.9723   -3243.6375    636.62412    571.18155    628.13207            0    1835.9377    -4178.024    -64.18469      37.4495      37.4495      37.4495            0            0            0   0.82348675 
156000 0.8234867517405469739 335.69225803339799086 -254.7338899678460109 -1340.1660461894300624 2000.2690780498398908 660.1030318604130116 464.98352573355600725
  156000    52521.615    335.69226   -254.73389    2000.2691    -1340.166    660.10303    464.98353    -1762.509    2742.9918   -3199.9585     664.4493    550.01526    645.32788            0    1859.7924   -4180.4413    -64.18469      37.4495      37.4495      37.4495            0            0            0   0.82348675 
157000 0.8234867517405469739 326.25140784842898256 -250.39431453634799141 -1357.1808907870799885 1944.0144572071499169 586.83356642007299797 395.03806172506699568
  157000    52521.615    326.25141   -250.39431    1944.0145   -1357.1809    586.83357    395.03806   -1724.8387    2680.2982   -3224.0801    674.57933    538.18303    654.13684            0    1866.8992   -4179.5396    -64.18469      37.4495      37.4495      37.4495            0            0            0   0.82348675 
158000 0.8234867517405469739 329.44915356499598147 1070.4576061641300839 -1390.9167176905500583 1963.0686704731499503 572.15195278260000578 1392.0945190067000112
  158000    52521.615    329.44915    1070.4576    1963.0687   -1390.9167    572.15195    1392.0945   -1729.1508    2706.9007   -3202.0437    654.28051    513.19131    643.65519            0     1811.127   -4179.7936    -64.18469      37.4495      37.4495      37.4495            0            0            0   0.82348675 
159000 0.8234867517405469739 336.90854459126398979 -454.68895087412698786 -1411.9984694425500038 2007.5164909213799547 595.51802147883199723 247.238161476312996
  159000    52521.615    336.90854   -454.68895    2007.5165   -1411.9985    595.51802    247.23816   -1731.8203    2689.3772   -3222.7771     667.4628    518.18341    625.13239            0    1810.7786    -4180.334    -64.18469      37.4495      37.4495      37.4495            0            0            0   0.82348675 
160000 0.8234867517405469739 340.88028806765800027 625.81951373592903565 -1443.5334776061199591 2031.1826776494199294 587.64920004330201664 1067.0106013084300685
  160000    52521.615    340.88029    625.81951    2031.1827   -1443.5335     587.6492    1067.0106   -1737.8018    2691.8833   -3225.2915    646.46254     513.6598    621.63572            0    1781.7581   -4179.3731    -64.18469      37.4495      37.4495      37.4495            0            0            0   0.82348675 
161000 0.8234867517405469739 332.53946331708198159 116.61946088954400125 -1353.2877397245799784 1981.4827115800499087 628.19497185546902074 717.52243282432698379
  161000    52521.615    332.53946    116.61946    1981.4827   -1353.2877    628.19497    717.52243   -1712.9296    2683.0527   -3209.7438    648.86549     554.6369    652.95366            0    1856.4561   -4179.8669    -64.18469      37.4495      37.4495      37.4495            0            0            0   0.82348675 
162000 0.8234867517405469739 331.31976039214697494 17.045354215055201763 -1377.5003254651398947 1974.2149418094700195 596.71461634433296695 609.77091245247402185
  162000    52521.615    331.31976    17.045354    1974.2149   -1377.5003    596.71462    609.77091   -1789.0211    2770.6448   -3197.5844    639.52476    540.51487    640.04439            0     1820.084   -4179.2081    -64.18469      37.4495      37.4495      37.4495            0            0            0   0.82348675 
163000 0.8234867517405469739 345.69865679763699973 216.40583798839099927 -1349.6647144281701003 2059.8935988773400823 710.22888444917305151 875.99010387935300059
  163000    52521.615    345.69866    216.40584    2059.8936   -1349.6647    710.22888     875.9901   -1723.2277    2749.5139   -3154.8491     681.1112    513.53404    610.53917            0    1805.1844   -4181.1353    -64.18469      37.4495      37.4495      37.4495            0            0            0   0.82348675 
164000 0.8234867517405469739 339.59579399533402011 376.27528853199100922 -1373.3859816324500116 2023.5288408023600368 650.14285916991502745 938.3599019645359931
  164000    52521.615    339.59579    376.27529    2023.5288    -1373.386    650.14286     938.3599     -1746.95    2729.8034   -3196.5028    641.60033    565.75652    615.75993            0    1823.1168   -4179.3562    -64.18469      37.4495      37.4495      37.4495            0            0            0   0.82348675 
165000 0.8234867517405469739 332.47553562237601454 523.0339486722359652 -1446.7257421828201132 1981.1017895066599976 534.37604732383999817 935.00639048465302494
  165000    52521.615    332.47554    523.03395    1981.1018   -1446.7257    534.37605    935.00639   -1741.1327    2677.2244    -3241.226    668.61776    514.62055    611.26194            0    1794.5002   -4177.3177    -64.18469      37.4495      37.4495      37.4495            0            0            0   0.82348675 
166000 0.8234867517405469739 334.78413479286098209 461.87945549080501451 -1424.6695640071500293 1994.8578992286600169 570.18833522151101079 923.97593394613795681
  166000    52521.615    334.78413    461.87946    1994.8579   -1424.6696    570.18834    923.97593   -1735.6216    2713.7575    -3199.391    642.74741    504.46063    627.51343            0    1774.7215   -4177.5269    -64.18469      37.4495      37.4495      37.4495            0            0            0   0.82348675 
167000 0.8234867517405469739 332.85229330170102457 626.64615781791701465 -1362.8695702762499877 1983.3467526174799787 620.47718234123101411 1100.4717713814200124
  167000    52521.615    332.85229    626.64616    1983.3468   -1362.8696    620.47718    1100.4718    -1730.005    2693.4712   -3216.6821    668.22729     516.1551    669.43017            0    1853.8126   -4180.1484    -64.18469      37.4495      37.4495      37.4495            0            0            0   0.82348675 
168000 0.8234867517405469739 337.55166779847098724 -772.63133185545200377 -1398.6358323998999822 2011.348630132119979 612.71279773222295262 20.897378477246899564
  168000    52521.615    337.55167   -772.63133    2011.3486   -1398.6358     612.7128    20.897378   -1699.2214     2661.303   -3217.4835    677.17123    517.31322    624.36325            0    1818.8477   -4179.5651    -64.18469      37.4495      37.4495      37.4495            0            0            0   0.82348675 
169000 0.8234867517405469739 339.74595616513101959 795.69563680929002203 -1498.237291844649917 2024.4236030071799632 526.18631116253300206 1135.6683855779999703
  169000    52521.615    339.74596    795.69564    2024.4236   -1498.2373    526.18631    1135.6684   -1676.1632     2596.219   -3258.8416    640.97582    477.74947      641.879            0    1760.6043   -4178.8973    -64.18469      37.4495      37.4495      37.4495            0            0            0   0.82348675 
170000 0.8234867517405469739 331.65261120824601448 -51.131966727750601365 -1351.6421888126599242 1976.1982797599700916 624.55609094730698416 585.3903399886379475
  170000    52521.615    331.65261   -51.131967    1976.1983   -1351.6422    624.55609    585.39034   -1746.8102    2696.9191   -3228.0808    664.82578    512.54319    699.06965            0    1876.4386   -4178.1896    -64.18469      37.4495      37.4495      37.4495            0            0            0   0.82348675 
171000 0.8234867517405469739 345.15979709664998154 510.28516992767299598 -1415.2162638422701093 2056.6827282912699957 641.4664644489970442 1032.3315760865400534
  171000    52521.615     345.1598    510.28517    2056.6827   -1415.2163    641.46646    1032.3316    -1721.432    2690.3015   -3211.4279    625.27487    542.32974    628.60704            0    1796.2116   -4180.2974    -64.18469      37.4495      37.4495      37.4495            0            0            0   0.82348675 
172000 0.8234867517405469739 327.60529059919497286 1618.9334209138598908 -1354.0559031761299593 1952.0817561598501015 598.02585298372503075 1838.0865672485099367
  172000    52521.615    327.60529    1618.9334    1952.0818   -1354.0559    598.02585    1838.0866   -1706.4189    2673.5438   -3212.3857    690.60956    541.33123    626.38898            0    1858.3298   -4179.5106    -64.18469      37.4495      37.4495      37.4495            0            0            0   0.82348675 
173000 0.8234867517405469739 339.94899562968498685 -55.633013776059598854 -1392.5478765804700743 2025.6334419380800682 633.08556535761294981 590.4721299262159846
  173000    52521.615      339.949   -55.633014    2025.6334   -1392.5479    633.08557    590.47213   -1713.4419    2663.7746   -3228.7724    675.52656    515.46951    645.22845            0    1836.2245   -4179.1051    -64.18469      37.4495      37.4495      37.4495            0            0            0   0.82348675 
174000 0.8234867517405469739 330.25793250057301975 860.81449589242902221 -1393.470271289269931 1967.8878924155699224 574.41762112630101456 1233.7790407103700545
  174000    52521.615    330.25793     860.8145    1967.8879   -1393.4703    574.41762     1233.779   -1763.2839    2719.8992   -3223.3198    679.04439    512.24085     638.5643            0    1829.8495   -4179.9351    -64.18469      37.4495      37.4495      37.4495            0            0            0   0.82348675 
175000 0.8234867517405469739 334.50955244744602624 253.69396528178899075 -1337.3310282960599125 1993.2217620769399673 655.89073378088698973 850.21368476080897381
  175000    52521.615    334.50955    253.69397    1993.2218    -1337.331    655.89073    850.21368   -1735.6453    2698.2599   -3216.3319    691.28551    544.31031    643.40501            0    1879.0008   -4178.9465    -64.18469      37.4495      37.4495      37.4495            0            0            0   0.82348675 
176000 0.8234867517405469739 332.41602950140799067 1321.8124581973299883 -1308.253206984920098 1980.7472139962699202 672.49400701134698011 1684.9678245640300247
  176000    52521.615    332.41603    1321.8125    1980.7472   -1308.2532    672.49401    1684.9678   -1708.5036    2673.0617   -3213.2573    651.90715    587.56329    665.53369            0    1905.0041   -4177.8154    -64.18469      37.4495      37.4495      37.4495            0            0            0   0.82348675 
177000 0.8234867517405469739 330.02899891296601709 -913.91602447145794486 -1392.28680344022996 1966.5237597456600724 574.23695630543704738 -125.79884717089099411
  177000    52521.615      330.029   -913.91602    1966.5238   -1392.2868    574.23696   -125.79885   -1731.0941    2705.0078   -3205.0035    641.03637    547.24822    624.43214            0    1812.7167   -4178.9172    -64.18469      37.4495      37.4495      37.4495            0            0            0   0.82348675 
178000 0.8234867517405469739 336.59290537832902146 -617.2166792546030365 -1357.960611190769896 2005.6357107057299345 647.6750995149600385 174.90324475853799413
  178000    52521.615    336.59291   -617.21668    2005.6357   -1357.9606     647.6751    174.90324   -1734.1438    2714.4118   -3198.4184    679.36005    534.07229     627.0254            0    1840.4577   -4178.6864    -64.18469      37.4495      37.4495      37.4495            0            0            0   0.82348675 
179000 0.8234867517405469739 343.05567992058701066 984.32940509721697708 -1421.9101821819399447 2044.1450530153199452 622.23487083337795411 1376.2054846883099799
  179000    52521.615    343.05568    984.32941    2044.1451   -1421.9102    622.23487    1376.2055   -1738.1904    2743.2605   -3172.8559    622.28181    495.45242    633.21152            0    1750.9457    -4177.926    -64.18469      37.4495      37.4495      37.4495            0            0            0   0.82348675 
180000 0.8234867517405469739 330.14815757778899297 546.2860447608220511 -1335.7510128713299764 1967.2337832476200674 631.4827703762910005 1049.9236118017499848
  180000    52521.615    330.14816    546.28604    1967.2338    -1335.751    631.48277    1049.9236   -1723.5733    2711.4931   -3191.8088    640.33639    521.90587     693.8155            0    1856.0578   -4179.7286    -64.18469      37.4495      37.4495      37.4495            0            0            0   0.82348675 
181000 0.8234867517405469739 340.79748966437699664 528.6657899028580232 -1284.765979298199909 2030.6893118304899417 745.92333253229003276 1150.8675189734099149
  181000    52521.615    340.79749    528.66579    2030.6893    -1284.766    745.92333    1150.8675    -1721.905    2695.4262   -3205.6941    661.47075    564.32873    695.12866            0    1920.9281   -4179.2153    -64.18469      37.4495      37.4495      37.4495            0            0            0   0.82348675 
182000 0.8234867517405469739 335.15451776187501309 857.06306152124000164 -1372.4523421709700415 1997.06487774016 624.61253556918995855 1281.1004544115000954
  182000    52521.615    335.15452    857.06306    1997.0649   -1372.4523    624.61254    1281.1005   -1740.8214    2732.5818   -3186.6766    653.23252    528.31194     632.6798            0    1814.2243    -4178.437    -64.18469      37.4495      37.4495      37.4495            0            0            0   0.82348675 
183000 0.8234867517405469739 331.60728139639002165 -356.41551882925199379 -1333.1151160108399836 1975.9281757620299231 642.81305975119198592 369.80808181641697274
  183000    52521.615    331.60728   -356.41552    1975.9282   -1333.1151    642.81306    369.80808   -1745.1025    2719.7401   -3204.2031    653.49544    541.97526    675.61732            0     1871.088   -4178.8407    -64.18469      37.4495      37.4495      37.4495            0            0            0   0.82348675 
184000 0.8234867517405469739 330.77292590948400175 503.68823974438998903 -1394.6999979478000569 1970.9565523759699772 576.25655442817196672 962.06858985556198149
  184000    52521.615    330.77293    503.68824    1970.9566      -1394.7    576.25655    962.06859   -1720.5235    2677.5201   -3223.0322    648.99041    531.28031    648.06152            0    1828.3322   -4180.0288    -64.18469      37.4495      37.4495      37.4495            0            0            0   0.82348675 
185000 0.8234867517405469739 334.57222658333597565 856.67578384392595581 -1399.175284235539948 1993.5952146455199454 594.41993040997704156 1250.6112046670600648
  185000    52521.615    334.57223    856.67578    1993.5952   -1399.1753    594.41993    1250.6112   -1712.7267    2656.5855   -3236.4468    646.01971    520.93835    670.31347            0    1837.2715   -4180.3057    -64.18469      37.4495      37.4495      37.4495            0            0            0   0.82348675 
186000 0.8234867517405469739 328.61573444937801014 -245.56512777287400695 -1393.6226075873501031 1958.1026265858399711 564.4800189984860026 376.38354522709397543
  186000    52521.615    328.61573   -245.56513    1958.1026   -1393.6226    564.48002    376.38355   -1712.7802    2666.8914   -3224.3664    636.19038    550.54095    644.01248            0    1830.7438   -4178.4777    -64.18469      37.4495      37.4495      37.4495            0            0            0   0.82348675 
187000 0.8234867517405469739 329.99436311477501249 164.22482713458299486 -1384.5403202457000589 1966.3173775177299376 581.77705727202396702 707.5689853437589818
[...]
4123000 0.8234867517405469739 339.27534142676699958 252.54582882767701335 -1337.2491418562899526 2021.6193795367300936 684.37023768044605276 877.81374612556896864
 4123000    52521.615    339.27534    252.54583    2021.6194   -1337.2491    684.37024    877.81375   -1754.1884     2695.294   -3238.8398    676.55276    572.87489    652.16305            0    1901.5907   -4179.9454    -64.18469      37.4495      37.4495      37.4495            0            0            0   0.82348675 
4124000 0.8234867517405469739 329.90688589174402523 189.13494496547198764 -1467.6052369941899087 1965.7961322996000035 498.19089530540600208 643.06332298925894975
4124000 0.8234867517405469739 329.90688589174402523 189.13494496547198764 -1467.6052369941899087 1965.7961322996000035 498.19089530540600208 643.06332298925894975
 4124000    52521.615    329.90689    189.13494    1965.7961   -1467.6052     498.1909    643.06332    -1758.891     2689.769   -3248.5014    631.73827    519.75334    629.40454            0    1780.8962   -4179.3794    -64.18469      37.4495      37.4495      37.4495            0            0            0   0.82348675 
4125000 0.8234867517405469739 331.42832016892202773 1205.7888122398001087 -1463.505141397080024 1974.861810360670006 511.35666896358497979 1434.959404222789999
4125000 0.8234867517405469739 331.42832016892202773 1205.7888122398001087 -1463.505141397080024 1974.861810360670006 511.35666896358497979 1434.959404222789999
 4125000    52521.615    331.42832    1205.7888    1974.8618   -1463.5051    511.35667    1434.9594   -1734.5856    2637.2461   -3275.4443    639.56811    523.99635    648.37469            0    1811.9392   -4178.1048    -64.18469      37.4495      37.4495      37.4495            0            0            0   0.82348675 
4126000 0.8234867517405469739 329.3348382385199784 1280.7585866509700736 -1430.633212481540113 1962.3875066773700837 531.75429419583201707 1512.7819184613499601
4126000 0.8234867517405469739 329.3348382385199784 1280.7585866509700736 -1430.633212481540113 1962.3875066773700837 531.75429419583201707 1512.7819184613499601
 4126000    52521.615    329.33484    1280.7586    1962.3875   -1430.6332    531.75429    1512.7819   -1728.4172    2653.5009   -3253.3529      643.794    509.54355     669.3821            0    1822.7197   -4178.4366    -64.18469      37.4495      37.4495      37.4495            0            0            0   0.82348675 
4127000 0.8234867517405469739 335.49090714108501743 531.92039912644702326 -1439.161719855040019 1999.0693007118300102 559.90758085678999123 967.34471295356001974
4127000 0.8234867517405469739 335.49090714108501743 531.92039912644702326 -1439.161719855040019 1999.0693007118300102 559.90758085678999123 967.34471295356001974
 4127000    52521.615    335.49091     531.9204    1999.0693   -1439.1617    559.90758    967.34471   -1707.1646    2618.1678    -3266.946    646.19318    511.10291    670.48818            0    1827.7843   -4177.9492    -64.18469      37.4495      37.4495      37.4495            0            0            0   0.82348675 
4128000 0.8234867517405469739 331.84563809215899255 -909.56995217385997421 -1402.6912039545400148 1977.3484573344599085 574.65725337992500954 -122.04957223481599726
4128000 0.8234867517405469739 331.84563809215899255 -909.56995217385997421 -1402.6912039545400148 1977.3484573344599085 574.65725337992500954 -122.04957223481599726
 4128000    52521.615    331.84564   -909.56995    1977.3485   -1402.6912    574.65725   -122.04957   -1742.7668    2672.5115   -3250.9674    650.91947    536.88843    660.46834            0    1848.2762   -4180.7122    -64.18469      37.4495      37.4495      37.4495            0            0            0   0.82348675 
4129000 0.8234867517405469739 340.5174406627519943 -931.93102759959197101 -1505.7379472937100218 2029.0206008462901082 523.28265355257599367 -190.5521717723129882
4129000 0.8234867517405469739 340.5174406627519943 -931.93102759959197101 -1505.7379472937100218 2029.0206008462901082 523.28265355257599367 -190.5521717723129882
 4129000    52521.615    340.51744   -931.93103    2029.0206   -1505.7379    523.28265   -190.55217   -1748.9209    2659.9096   -3267.4307    622.62783       509.79    629.27489            0    1761.6927   -4178.4194    -64.18469      37.4495      37.4495      37.4495            0            0            0   0.82348675 
4130000 0.8234867517405469739 327.79912263545799078 422.69328076774502279 -1446.6557953730700774 1953.2367313467800614 506.58093597371299666 830.35294839402399703
4130000 0.8234867517405469739 327.79912263545799078 422.69328076774502279 -1446.6557953730700774 1953.2367313467800614 506.58093597371299666 830.35294839402399703
 4130000    52521.615    327.79912    422.69328    1953.2367   -1446.6558    506.58094    830.35295   -1713.7065    2574.2656   -3316.5318    644.82856    550.02973    675.01767            0     1869.876   -4177.0909    -64.18469      37.4495      37.4495      37.4495            0            0            0   0.82348675 
4131000 0.8234867517405469739 333.34041080548098535 842.89987695909303511 -1549.0501702466399365 1986.2552687536099256 437.20509850696799958 1082.844387913680066
4131000 0.8234867517405469739 333.34041080548098535 842.89987695909303511 -1549.0501702466399365 1986.2552687536099256 437.20509850696799958 1082.844387913680066
 4131000    52521.615    333.34041    842.89988    1986.2553   -1549.0502     437.2051    1082.8444   -1739.3094    2623.6551    -3292.753    574.38975    527.49977    641.81328            0    1743.7028   -4177.0987    -64.18469      37.4495      37.4495      37.4495            0            0            0   0.82348675 
4132000 0.8234867517405469739 327.05662556847300948 112.01842531197499397 -1456.0708314052199057 1948.8124591507701098 492.74162774554497446 578.54481563993795135
4132000 0.8234867517405469739 327.05662556847300948 112.01842531197499397 -1456.0708314052199057 1948.8124591507701098 492.74162774554497446 578.54481563993795135
 4132000    52521.615    327.05663    112.01843    1948.8125   -1456.0708    492.74163    578.54482   -1727.3218    2687.5928   -3218.3269    597.60867    545.37121    619.27617            0     1762.256   -4178.5979    -64.18469      37.4495      37.4495      37.4495            0            0            0   0.82348675 
4133000 0.8234867517405469739 335.54074152167800094 640.82926146204397355 -1456.3778523680200578 1999.3662458100300228 542.98839344200496271 1033.8468694143100493
4133000 0.8234867517405469739 335.54074152167800094 640.82926146204397355 -1456.3778523680200578 1999.3662458100300228 542.98839344200496271 1033.8468694143100493
 4133000    52521.615    335.54074    640.82926    1999.3662   -1456.3779    542.98839    1033.8469    -1692.157    2597.4739   -3273.6268     606.3741     563.4153    647.45953            0    1817.2489   -4178.9437    -64.18469      37.4495      37.4495      37.4495            0            0            0   0.82348675 
4134000 0.8234867517405469739 348.43651596490997235 685.96452460274201712 -1410.9589116024499162 2076.2075140818001273 665.24860247935203006 1190.6795110951100014
4134000 0.8234867517405469739 348.43651596490997235 685.96452460274201712 -1410.9589116024499162 2076.2075140818001273 665.24860247935203006 1190.6795110951100014
 4134000    52521.615    348.43652    685.96452    2076.2075   -1410.9589     665.2486    1190.6795   -1735.5593    2658.9793   -3257.2456    622.14441    557.51614    666.62615            0    1846.2867   -4180.6656    -64.18469      37.4495      37.4495      37.4495            0            0            0   0.82348675 
4135000 0.8234867517405469739 338.16349614072498753 631.65885457068600317 -1409.4824806519900449 2014.9942945309799143 605.51181387898498087 1089.3459977013499156
4135000 0.8234867517405469739 338.16349614072498753 631.65885457068600317 -1409.4824806519900449 2014.9942945309799143 605.51181387898498087 1089.3459977013499156
 4135000    52521.615     338.1635    631.65885    2014.9943   -1409.4825    605.51181     1089.346   -1744.5488    2708.3292   -3215.4502    636.28063    523.37385    646.31323            0    1805.9677   -4179.2306    -64.18469      37.4495      37.4495      37.4495            0            0            0   0.82348675 
4136000 0.8234867517405469739 342.06679403835897801 992.3622008332349651 -1444.6019968721300302 2038.2526387442001123 593.65064187206405677 1353.7741674460799004
4136000 0.8234867517405469739 342.06679403835897801 992.3622008332349651 -1444.6019968721300302 2038.2526387442001123 593.65064187206405677 1353.7741674460799004
 4136000    52521.615    342.06679     992.3622    2038.2526    -1444.602    593.65064    1353.7742    -1777.953    2749.9279   -3208.9559     630.8777     519.8886    613.58762            0    1764.3539   -4180.9307    -64.18469      37.4495      37.4495      37.4495            0            0            0   0.82348675 
4137000 0.8234867517405469739 336.93730048612599148 -1404.1642402325398962 -1489.1096047334299328 2007.6878369263199602 518.578232192887981 -556.97489938984199398
4137000 0.8234867517405469739 336.93730048612599148 -1404.1642402325398962 -1489.1096047334299328 2007.6878369263199602 518.578232192887981 -556.97489938984199398
 4137000    52521.615     336.9373   -1404.1642    2007.6878   -1489.1096    518.57823    -556.9749   -1743.0653    2624.4758   -3299.0588    627.46867    533.63094    648.84958            0    1809.9492   -4180.4693    -64.18469      37.4495      37.4495      37.4495            0            0            0   0.82348675 
4138000 0.8234867517405469739 330.93358384415898854 566.92510481188401172 -1475.6916692888300986 1971.9138550577699789 496.22218576894101716 930.47200810618301148
4138000 0.8234867517405469739 330.93358384415898854 566.92510481188401172 -1475.6916692888300986 1971.9138550577699789 496.22218576894101716 930.47200810618301148
 4138000    52521.615    330.93358     566.9251    1971.9139   -1475.6917    496.22219    930.47201   -1729.7185    2654.4424   -3254.6483    633.80824    504.43099    640.71744            0    1778.9567   -4179.3722    -64.18469      37.4495      37.4495      37.4495            0            0            0   0.82348675 
4139000 0.8234867517405469739 335.72315829189301439 -361.83008033945799298 -1389.8388216922999163 2000.4532015441700423 610.61437985187194499 333.46198922733600511
4139000 0.8234867517405469739 335.72315829189301439 -361.83008033945799298 -1389.8388216922999163 2000.4532015441700423 610.61437985187194499 333.46198922733600511
 4139000    52521.615    335.72316   -361.83008    2000.4532   -1389.8388    610.61438    333.46199   -1720.5895    2659.2799   -3238.0645    628.32868    536.81587    683.08108            0    1848.2256   -4176.7549    -64.18469      37.4495      37.4495      37.4495            0            0            0   0.82348675 
4140000 0.8234867517405469739 322.69053022864000013 439.43921466430697365 -1469.5515469407600904 1922.7964719151700592 453.24492497441599426 789.84388535969003442
4140000 0.8234867517405469739 322.69053022864000013 439.43921466430697365 -1469.5515469407600904 1922.7964719151700592 453.24492497441599426 789.84388535969003442
 4140000    52521.615    322.69053    439.43921    1922.7965   -1469.5515    453.24492    789.84389   -1707.5349    2622.6782   -3263.7622    657.42259    509.38631    627.40174            0    1794.2106   -4178.9055    -64.18469      37.4495      37.4495      37.4495            0            0            0   0.82348675 
4141000 0.8234867517405469739 333.02612010731797909 1233.4160273671500363 -1505.4565319035900757 1984.382523851069891 478.92599194748402169 1423.6904523779599003
4141000 0.8234867517405469739 333.02612010731797909 1233.4160273671500363 -1505.4565319035900757 1984.382523851069891 478.92599194748402169 1423.6904523779599003
 4141000    52521.615    333.02612     1233.416    1984.3825   -1505.4565    478.92599    1423.6905   -1772.6079    2667.8208   -3282.8949    630.10661     516.3101    631.02161            0    1777.4383   -4178.1077    -64.18469      37.4495      37.4495      37.4495            0            0            0   0.82348675 
4142000 0.8234867517405469739 334.59079044648399304 -63.496764040150601716 -1518.5029494963400793 1993.705830009849933 475.20288051350900105 426.566017779102026
4142000 0.8234867517405469739 334.59079044648399304 -63.496764040150601716 -1518.5029494963400793 1993.705830009849933 475.20288051350900105 426.566017779102026
 4142000    52521.615    334.59079   -63.496764    1993.7058   -1518.5029    475.20288    426.56602   -1767.4091    2693.2021   -3253.9954     604.0728    511.99546    619.42422            0    1735.4925   -4179.7885    -64.18469      37.4495      37.4495      37.4495            0            0            0   0.82348675 
4143000 0.8234867517405469739 322.74112178722901945 -964.76036413082294985 -1387.8978426590499566 1923.0979287639199811 535.20008610487502665 -203.7811535084900072
4143000 0.8234867517405469739 322.74112178722901945 -964.76036413082294985 -1387.8978426590499566 1923.0979287639199811 535.20008610487502665 -203.7811535084900072
 4143000    52521.615    322.74112   -964.76036    1923.0979   -1387.8978    535.20009   -203.78115   -1762.9812    2728.5086   -3214.7096    654.11813     538.4313    634.26229            0    1826.8117   -4180.2369    -64.18469      37.4495      37.4495      37.4495            0            0            0   0.82348675 
4144000 0.8234867517405469739 337.94648582472797216 371.88415360730601833 -1394.7428649092100841 2013.701208335749925 618.95834342654404736 903.81189156425398323
4144000 0.8234867517405469739 337.94648582472797216 371.88415360730601833 -1394.7428649092100841 2013.701208335749925 618.95834342654404736 903.81189156425398323
 4144000    52521.615    337.94649    371.88415    2013.7012   -1394.7429    618.95834    903.81189     -1737.29    2688.7328   -3228.8656    654.18901     538.4793    641.45442            0    1834.1227   -4180.3084    -64.18469      37.4495      37.4495      37.4495            0            0            0   0.82348675 
4145000 0.8234867517405469739 336.56800790782898503 762.22737802930600992 -1438.6549241575401084 2005.4873556597899551 566.83243150225598583 1150.6786938751999969
4145000 0.8234867517405469739 336.56800790782898503 762.22737802930600992 -1438.6549241575401084 2005.4873556597899551 566.83243150225598583 1150.6786938751999969
 4145000    52521.615    336.56801    762.22738    2005.4874   -1438.6549    566.83243    1150.6787   -1743.8699    2642.8655   -3279.5026    655.54894    549.57332    635.72537            0    1840.8476   -4178.4981    -64.18469      37.4495      37.4495      37.4495            0            0            0   0.82348675 
4146000 0.8234867517405469739 323.11725523246099101 156.92026993977398774 -1425.0186084316799224 1925.3391722889400626 500.32056385725798009 620.51739191106196358
4146000 0.8234867517405469739 323.11725523246099101 156.92026993977398774 -1425.0186084316799224 1925.3391722889400626 500.32056385725798009 620.51739191106196358
 4146000    52521.615    323.11726    156.92027    1925.3392   -1425.0186    500.32056    620.51739   -1711.7434    2664.8834   -3226.1857    632.23139    534.15979    634.77588            0    1801.1671   -4179.3257    -64.18469      37.4495      37.4495      37.4495            0            0            0   0.82348675 
4147000 0.8234867517405469739 330.12474868346697576 1128.7688905587899626 -1433.6536101375900216 1967.0942980901800183 533.44068795258499449 1398.0481749461400796
4147000 0.8234867517405469739 330.12474868346697576 1128.7688905587899626 -1433.6536101375900216 1967.0942980901800183 533.44068795258499449 1398.0481749461400796
 4147000    52521.615    330.12475    1128.7689    1967.0943   -1433.6536    533.44069    1398.0482   -1740.3137    2672.3176   -3248.0318    612.83081    554.23344    647.31393            0    1814.3782   -4180.0357    -64.18469      37.4495      37.4495      37.4495            0            0            0   0.82348675 
4148000 0.8234867517405469739 327.54534353934297997 999.07390307877801661 -1458.0037601149999773 1951.7245532536999235 493.72079313870398209 1258.9853073247400062
4148000 0.8234867517405469739 327.54534353934297997 999.07390307877801661 -1458.0037601149999773 1951.7245532536999235 493.72079313870398209 1258.9853073247400062
 4148000    52521.615    327.54534     999.0739    1951.7246   -1458.0038    493.72079    1258.9853   -1696.6657    2636.0476   -3240.6642    602.25569    535.64792     644.7568            0    1782.6604    -4180.046    -64.18469      37.4495      37.4495      37.4495            0            0            0   0.82348675 
4149000 0.8234867517405469739 335.59263807080998276 -334.75773038221399247 -1408.4874047987300401 1999.6754786266999417 591.18807382797103855 334.77239614735401574
4149000 0.8234867517405469739 335.59263807080998276 -334.75773038221399247 -1408.4874047987300401 1999.6754786266999417 591.18807382797103855 334.77239614735401574
 4149000    52521.615    335.59264   -334.75773    1999.6755   -1408.4874    591.18807     334.7724   -1699.0332    2617.2084    -3261.528    653.34629    521.64172    678.05257            0    1853.0406   -4179.7031    -64.18469      37.4495      37.4495      37.4495            0            0            0   0.82348675 
4150000 0.8234867517405469739 328.90487613659098542 970.90054269896700134 -1436.2237049097900581 1959.8255176036300327 523.60181269383599556 1267.2862687104000088
4150000 0.8234867517405469739 328.90487613659098542 970.90054269896700134 -1436.2237049097900581 1959.8255176036300327 523.60181269383599556 1267.2862687104000088
 4150000    52521.615    328.90488    970.90054    1959.8255   -1436.2237    523.60181    1267.2863   -1754.8407    2717.7743   -3217.2711     628.0319     515.1694    637.84614            0    1781.0474   -4180.2047    -64.18469      37.4495      37.4495      37.4495            0            0            0   0.82348675 
 4150519    52521.615    327.14105   -58.928616    1949.3155   -1400.6624    548.65307    503.51529    -1713.442    2664.0186   -3228.8997    643.67316     556.2745    628.28958            0    1828.2372   -4179.4762    -64.18469      37.4495      37.4495      37.4495            0            0            0   0.82348675 
Loop time of 5364.88 on 48 procs for 3000000 steps with 2000 atoms

Performance: 48.314 ns/day, 0.497 hours/ns, 559.192 timesteps/s
43.5% CPU use with 48 MPI tasks x 1 OpenMP threads

MPI task timing breakdown:
Section |  min time  |  avg time  |  max time  |%varavg| %total
---------------------------------------------------------------
Pair    | 705.06     | 788.24     | 911.08     | 164.5 | 14.69
Bond    | 30.185     | 33.334     | 38.127     |  25.6 |  0.62
Kspace  | 913.95     | 1217.9     | 1381.9     | 334.9 | 22.70
Neigh   | 213        | 251.03     | 275.38     | 139.8 |  4.68
Comm    | 1977.3     | 2296.1     | 2727.8     | 394.0 | 42.80
Output  | 13.081     | 13.108     | 13.127     |   0.3 |  0.24
Modify  | 227.62     | 454.08     | 638.16     | 513.5 |  8.46
Other   |            | 311.1      |            |       |  5.80

Nlocal:    41.6667 ave 54 max 29 min
Histogram: 2 2 7 4 8 11 4 2 5 3
Nghost:    2451.02 ave 2494 max 2418 min
Histogram: 4 8 4 7 8 4 6 2 3 2
Neighs:    11215.5 ave 15101 max 7713 min
Histogram: 2 4 3 10 8 10 4 3 1 3

Total # of neighbors = 538345
Ave neighs/atom = 269.173
Ave special neighs/atom = 4.8
Neighbor list builds = 279512
Dangerous builds = 0

write_data      restart.${NAME}.final.data
write_data      restart.octanol_ua_333.final.data
Ewald initialization ...
  using 12-bit tables for long-range coulomb (src/kspace.cpp:332)
  G vector (1/distance) = 0.149129
  estimated absolute RMS force accuracy = 0.0367822
  estimated relative force accuracy = 0.000110768
  KSpace vectors: actual max1d max3d = 128 4 364
                  kxmax kymax kzmax  = 4 4 4
Total wall time: 2:03:28
