
variable        infile index octanol_ua.data   # The name of the (edited) data file

#>>>>>> Simulation settings <<<<<<<

units		 real		#angstroms = length -
atom_style	 full		#How the atoms are defined in the input data file
boundary        p p p           #periodic box in x, y and z
pair_style	 lj/cut/coul/long 14.0    #'lj/cut/coul/long 12.0' for your ethanol simulation
pair_modify     tail yes            #Tail corrections
pair_modify     mix arithmetic      #Lorentz-Berthelot pair interactions between dissimilar atom

# The settings below are additional settings you must add for your ethanol simulation as already detailed in your example NPT LAMMPS script in the tutorial
# For your ethanol homework, change/edit the pair_style line as advised above and uncomment the extra settings below and you should be good to go for this section.

special_bonds   lj/coul 0.0 0.0 0.5
kspace_style    ewald 0.0001
bond_style      harmonic
angle_style     harmonic
dihedral_style  opls


# >>> Using the variable command in LAMMPS to define inputs/settings for the simulation <<<<<<

variable   simulationTemp  index 360     #Simulation temperature
variable   simulationPress equal 0.987	#Simulation pressure

# Output files frequencies
variable        dumpfreq   index 1000          #Output frequency of dump information to dump
variable        thermofreq index 1000          #Output frequency of property information to log
variable        printfreq  index 1000          #Output frequency of information to be printed
variable        restartfreq index 1000000      #Output frequency of restart files


# Simulation run times (equilibration and production)
variable        NVT_equib  index 1000000       # Equilibration run length (in timesteps)
variable        NVT_prod   index 3000000       # Simulation run length  (in timesteps)


# Defining properties to output
# The first expression after the 'variable' command is a user defined name for the variable, it can be anything
# The expression after the 'equal' keyword are LAMMPS special/reserved terms for those property

variable    step        equal step
variable    density     equal density
variable    temp        equal temp
variable    press       equal press
variable    ke          equal ke
variable    pe          equal pe
variable    etotal      equal etotal
variable    enthalpy    equal enthalpy


# >>>>>>>>>>> Reading data, Neighbor list settings, energy minimization, assigning initial velocities & specifying thermodynamic property output style to log files <<<<<<<<<

read_data	${infile}
read_data	octanol_ua.data
  orthogonal box = (0 0 0) to (40 40 40)
  3 by 4 by 4 MPI processor grid
  reading atoms ...
  2000 atoms
  scanning bonds ...
  1 = max bonds/atom
  scanning angles ...
  1 = max angles/atom
  scanning dihedrals ...
  1 = max dihedrals/atom
  reading bonds ...
  1800 bonds
  reading angles ...
  1600 angles
  reading dihedrals ...
  1400 dihedrals
  2 = max # of 1-2 neighbors
  2 = max # of 1-3 neighbors
  4 = max # of 1-4 neighbors
  6 = max # of special neighbors
  special bonds CPU = 0.0230041 secs
  read_data CPU = 0.0451337 secs
neighbor        1.0 bin
neigh_modify    delay 0 every 1 check yes page 1000000 one 20000
timestep        1.0

minimize        1e-4 1e-6 10000 100000        #Energy minimize before creating velocities
Ewald initialization ...
  using 12-bit tables for long-range coulomb (src/kspace.cpp:332)
  G vector (1/distance) = 0.147428
  estimated absolute RMS force accuracy = 0.041374
  estimated relative force accuracy = 0.000124597
  KSpace vectors: actual max1d max3d = 128 4 364
                  kxmax kymax kzmax  = 4 4 4
Neighbor list info ...
  update every 1 steps, delay 0 steps, check yes
  max neighbors/atom: 20000, page size: 1000000
  master list distance cutoff = 15
  ghost atom cutoff = 15
  binsize = 7.5, bins = 6 6 6
  1 neighbor lists, perpetual/occasional/extra = 1 0 0
  (1) pair lj/cut/coul/long, perpetual
      attributes: half, newton on
      pair build: half/bin/newton
      stencil: half/bin/3d/newton
      bin: standard
Per MPI rank memory allocation (min/avg/max) = 18.73 | 18.85 | 19.24 Mbytes
Step Temp E_pair E_mol TotEng Press 
       0            0    278272.25    45807.952     324080.2    1091500.2 
     519            0   -2759.2838    366.72189   -2392.5619    -653.1094 
Loop time of 2.26917 on 48 procs for 519 steps with 2000 atoms

40.8% CPU use with 48 MPI tasks x 1 OpenMP threads

Minimization stats:
  Stopping criterion = energy tolerance
  Energy initial, next-to-last, final = 
         324080.203868      -2392.3711054     -2392.56188381
  Force two-norm initial, final = 76473.1 25.3948
  Force max component initial, final = 6066.45 5.47673
  Final line search alpha, max atom move = 0.0145911 0.0799117
  Iterations, force evaluations = 519 954

MPI task timing breakdown:
Section |  min time  |  avg time  |  max time  |%varavg| %total
---------------------------------------------------------------
Pair    | 0.055877   | 0.32417    | 0.6061     |  27.9 | 14.29
Bond    | 0.0035719  | 0.011299   | 0.017206   |   3.6 |  0.50
Kspace  | 0.28945    | 0.55338    | 0.78776    |  19.1 | 24.39
Neigh   | 0.037087   | 0.041455   | 0.045763   |   1.2 |  1.83
Comm    | 0.63891    | 0.76529    | 0.92327    |   6.1 | 33.73
Output  | 0          | 0          | 0          |   0.0 |  0.00
Modify  | 0          | 0          | 0          |   0.0 |  0.00
Other   |            | 0.5736     |            |       | 25.28

Nlocal:    41.6667 ave 67 max 13 min
Histogram: 3 5 3 4 6 5 5 8 8 1
Nghost:    2115.67 ave 2186 max 2016 min
Histogram: 13 2 1 0 0 0 1 10 8 13
Neighs:    9780.23 ave 16722 max 1938 min
Histogram: 4 5 4 5 3 5 3 7 9 3

Total # of neighbors = 469451
Ave neighs/atom = 234.726
Ave special neighs/atom = 4.8
Neighbor list builds = 47
Dangerous builds = 0
#velocity	all create ${simulationTemp} 886874 mom yes rot yes dist gaussian

velocity        all create  ${simulationTemp} 317879265 units box
velocity        all create  360 317879265 units box
velocity        all zero linear units box

# The 'velocity' command line above assigns initial velocities to the atoms in our data file, see the LAMMPS 'velocity' command
# The number '886874' is the seed number which helps LAMMPS to consistently assign the same randomized velocities for the same simulation with the same seed number
# Changing that seed number for your simulation of a given system is one easy way to run an 'independent' simulation of the same system as taught in class
# You will need to do this for your homework

thermo_style    custom step vol temp press ke pe etotal enthalpy evdwl ecoul epair ebond eangle edihed eimp emol elong etail lx ly lz xy xz yz density
thermo          ${thermofreq}
thermo          1000

fix npt_density all npt temp ${simulationTemp} ${simulationTemp} 100 iso ${simulationPress} ${simulationPress} 1000
fix npt_density all npt temp 360 ${simulationTemp} 100 iso ${simulationPress} ${simulationPress} 1000
fix npt_density all npt temp 360 360 100 iso ${simulationPress} ${simulationPress} 1000
fix npt_density all npt temp 360 360 100 iso 0.987 ${simulationPress} 1000
fix npt_density all npt temp 360 360 100 iso 0.987 0.987 1000

run 50000
Ewald initialization ...
  using 12-bit tables for long-range coulomb (src/kspace.cpp:332)
  G vector (1/distance) = 0.147428
  estimated absolute RMS force accuracy = 0.041374
  estimated relative force accuracy = 0.000124597
  KSpace vectors: actual max1d max3d = 128 4 364
                  kxmax kymax kzmax  = 4 4 4
Per MPI rank memory allocation (min/avg/max) = 17.6 | 17.76 | 18.11 Mbytes
Step Volume Temp Press KinEng PotEng TotEng Enthalpy E_vdwl E_coul E_pair E_bond E_angle E_dihed E_impro E_mol E_long E_tail Lx Ly Lz Xy Xz Yz Density 
     519        64000          360     879.0448    2145.1101   -2392.5619   -247.45174    573.02613   -1771.8765    3145.3273   -2759.2838    23.571376    41.518217     301.6323            0    366.72189   -4132.7346   -52.673181           40           40           40            0            0            0   0.67579459 
    1000    67702.904    316.50123    150.08457    1885.9166   -632.65715    1253.2595    1401.4496   -1541.1568    3322.6847   -2348.9632    573.42014     471.6691     671.2168            0     1716.306   -4130.4911   -49.792304    40.757021    40.757021    40.757021            0            0            0   0.63883307 
    2000    69088.055    368.95687     106.9586    2198.4809   -290.39573    1908.0852    2015.8544   -1340.8055     3219.062   -2249.8623    658.36414    553.89353    747.20895            0    1959.4666   -4128.1189   -48.794015    41.033099    41.033099    41.033099            0            0            0   0.62602507 
    3000    65306.946    350.37631    1016.6482     2087.766   -493.72401     1594.042    2562.3332   -1445.4056      3131.11    -2445.425    641.33997    569.64322    740.71781            0     1951.701   -4131.1294   -51.619066    40.270448    40.270448    40.270448            0            0            0   0.66227035 
    4000    61950.587    362.99033   -66.684322    2162.9284   -505.88559    1657.0428    1596.7945   -1450.8962    3084.2622   -2497.4512    620.12682    606.95885    764.47995            0    1991.5656   -4130.8172   -54.415684    39.568399    39.568399    39.568399            0            0            0   0.69815083 
    5000     60183.67    357.69976    101.06366    2131.4038    -591.4445    1539.9593    1628.6646   -1437.3112    2969.1187     -2599.28    664.89318    573.85222     769.0901            0    2007.8355   -4131.0875    -56.01326    39.188583    39.188583    39.188583            0            0            0   0.71864767 
    6000    58528.586    359.98887     359.3537    2145.0438   -607.75625    1537.2876    1844.0245   -1554.8498    3092.4143   -2593.6618    635.41372     561.9159    788.57588            0    1985.9055   -4131.2263   -57.597216    38.826002    38.826002    38.826002            0            0            0   0.73896975 
    7000    57766.766    364.54453    -1677.864    2172.1893   -618.46878    1553.7206    140.17209   -1577.4222    3010.5943   -2698.3885     641.2951    655.44888    783.17573            0    2079.9197   -4131.5606   -58.356799     38.65681     38.65681     38.65681            0            0            0   0.74871517 
    8000    57206.573     349.0974    1451.4604    2080.1455   -702.53159    1377.6139    2588.5661   -1582.6874    2985.7893   -2725.4978    633.10078    614.94466    774.92081            0    2022.9662   -4128.5998   -58.928256    38.531446    38.531446    38.531446            0            0            0   0.75604693 
    9000    57474.203    357.56455    240.31241    2130.5982   -737.40887    1393.1893    1594.6197   -1611.0176    3046.9445   -2694.7503    628.75391     560.0023    768.58517            0    1957.3414   -4130.6772   -58.653855     38.59144     38.59144     38.59144            0            0            0   0.75252638 
   10000    56938.476    357.47383    1646.6467    2130.0576   -751.75877    1378.2988    2745.6566    -1590.643    2948.8296   -2774.3018    637.79108    592.74773    792.00421            0     2022.543   -4132.4884   -59.205722     38.47116     38.47116     38.47116            0            0            0   0.75960681 
   11000    57363.811     360.5563    403.92889    2148.4249   -765.64273    1382.7822     1720.706   -1532.1614    2894.2238   -2769.9994    661.77542    603.87263    738.70862            0    2004.3567   -4132.0617    -58.76673    38.566717    38.566717    38.566717            0            0            0   0.75397456 
   12000    57396.075    367.35562    67.196879    2188.9396    -754.0511    1434.8885    1491.1365   -1522.2347    2890.9358   -2763.8702    629.39918    627.73848     752.6814            0    2009.8191   -4132.5713   -58.733695    38.573946    38.573946    38.573946            0            0            0   0.75355073 
   13000    57388.815    355.23933    466.13867     2116.743   -765.08426    1351.6588    1741.7968   -1562.5083    2937.6178   -2756.7166    620.04334    619.89721    751.69176            0    1991.6323   -4131.8261   -58.741125    38.572319    38.572319    38.572319            0            0            0   0.75364605 
   14000    56228.843    369.58989   -609.09523    2202.2528   -758.81192    1443.4409    943.95847   -1606.3321    2934.3457   -2803.6667    657.67695    608.94722    778.23061            0    2044.8548   -4131.6803   -59.952924    38.310667    38.310667    38.310667            0            0            0   0.76919338 
   15000    57487.842    362.11833    1841.3475    2157.7325   -871.29063    1286.4419    2830.2298   -1525.2009    2831.9325    -2824.904    637.89164    557.98654    757.73521            0    1953.6134   -4131.6356    -58.63994    38.594493    38.594493    38.594493            0            0            0   0.75234785 
   16000    57274.352    365.38007    179.87903    2177.1681   -836.20135    1340.9667    1491.2175   -1571.3649    2861.3989   -2842.6772    638.26927    614.38345    753.82313            0    2006.4759   -4132.7111   -58.858519    38.546658    38.546658    38.546658            0            0            0   0.75515221 
   17000    56952.929    368.04049    1353.4245    2193.0205    -857.4906    1335.5299    2459.6844   -1538.8794    2846.8234   -2823.2557    657.67545    563.92124    744.16836            0    1965.7651   -4131.1996   -59.190697    38.474415    38.474415    38.474415            0            0            0   0.75941404 
   18000    58341.424    367.99241   -70.726571    2192.7341   -743.55737    1449.1767     1388.999   -1478.0402     2878.474   -2730.1141    646.24798    592.17019    748.13856            0    1986.5567   -4130.5479    -57.78199    38.784572    38.784572    38.784572            0            0            0   0.74134039 
   19000    57623.954    363.41113    881.87967    2165.4358   -883.20131    1282.2345    2023.3541   -1542.6378    2823.6076   -2851.0271    649.29721    583.31354    735.21498            0    1967.8257   -4131.9969   -58.501427    38.624928    38.624928    38.624928            0            0            0   0.75057074 
   20000    57519.128    364.51863    -203.8944    2172.0351   -866.06879    1305.9663    1134.9279    -1524.594    2786.3679   -2870.1502    653.93867    597.78647    752.35632            0    2004.0815   -4131.9241   -58.608044    38.601493    38.601493    38.601493            0            0            0   0.75193862 
   21000    56315.861    357.07169   -770.14191    2127.6614   -876.58806    1251.0733    618.54879   -1575.4219    2797.8361   -2907.6334    644.23564    628.56462    758.24509            0    2031.0453   -4130.0476   -59.860287     38.33042     38.33042     38.33042            0            0            0   0.76800485 
   22000    57124.105    352.34413   -19.664541    2099.4916   -952.28965    1147.2019    1130.8195   -1511.0896    2756.0708   -2886.1587    614.71337    573.41104    745.74462            0     1933.869   -4131.1399   -59.013329    38.512922    38.512922    38.512922            0            0            0   0.75713842 
   23000    56671.199    372.96826    320.50308    2222.3833    -986.6402    1235.7431    1500.6362   -1589.8516    2796.8951   -2923.9451    653.30515    561.43741    722.56235            0    1937.3049   -4130.9886   -59.484952    38.410869    38.410869    38.410869            0            0            0   0.76318932 
   24000    56232.807     361.1013    475.49146    2151.6724   -897.02894    1254.6434     1644.593   -1567.5085    2764.0724   -2935.0229    684.68428    574.27395    779.03578            0     2037.994   -4131.5869   -59.948698    38.311568    38.311568    38.311568            0            0            0   0.76913916 
   25000    55646.508    364.60357   -114.44298    2172.5412   -990.49764    1182.0435    1089.1677   -1588.9352     2783.998   -2936.3485    630.81264    572.63118    742.40702            0    1945.8508   -4131.4113   -60.580326    38.177953    38.177953    38.177953            0            0            0   0.77724292 
   26000    56280.213     363.3817   -182.62956    2165.2605   -939.13212    1226.1284     1076.228   -1602.1504    2820.1166   -2913.1591    654.49764    602.50023    717.02914            0     1974.027   -4131.1254   -59.898202     38.32233     38.32233     38.32233            0            0            0    0.7684913 
   27000    55467.223    361.29533   -813.22561    2152.8285    -977.2823    1175.5462    517.70155   -1623.2456    2800.9423   -2953.2149    670.80556    578.24137    726.88563            0    1975.9326   -4130.9116   -60.776137    38.136908    38.136908    38.136908            0            0            0   0.77975517 
   28000    56278.461    350.07071    532.58362    2085.9451   -993.50345    1092.4416    1529.5669   -1607.0988     2804.047   -2934.9344    624.02674    609.51228    707.89189            0    1941.4309   -4131.8826   -59.900067    38.321933    38.321933    38.321933            0            0            0   0.76851523 
   29000    55959.692    362.94316   -476.11592    2162.6474   -914.95062    1247.6968    859.13156   -1584.6625    2825.8844   -2889.7219     643.5999    573.34442    757.82693            0    1974.7712   -4130.9438   -60.241282    38.249442    38.249442    38.249442            0            0            0     0.772893 
   30000    55381.338    353.98676   -7.1754787    2109.2794   -1009.8367    1099.4428    1093.6473   -1588.4334    2764.5408   -2955.7058    615.81229    585.96575    744.09112            0    1945.8692   -4131.8132   -60.870389    38.117214    38.117214    38.117214            0            0            0   0.78096441 
   31000    55980.001     373.3811   -562.57136    2224.8433   -956.66878    1268.1745    808.88515   -1605.9552    2809.3336    -2928.052    620.69185     592.3179     758.3735            0    1971.3832   -4131.4305   -60.219427    38.254069    38.254069    38.254069            0            0            0   0.77261259 
   32000    55432.363    355.63925   -1839.7847     2119.126      -953.65     1165.476   -321.85039   -1639.2098    2833.7536   -2936.1534    652.66105    631.49589    698.34648            0    1982.5034   -4130.6973   -60.814359    38.128916    38.128916    38.128916            0            0            0   0.78024555 
   33000    56027.037    366.49508    91.321432     2183.812   -869.06825    1314.7437    1389.3622   -1588.5661    2772.5463   -2947.9007    676.93378    606.60273    795.29595            0    2078.8325   -4131.8809   -60.168872     38.26478     38.26478     38.26478            0            0            0   0.77196398 
   34000    55104.329     368.6518   -376.56788    2196.6631   -937.62779    1259.0353    956.41024   -1600.8703    2755.9451   -2976.4253    675.12333    613.59754    750.07659            0    2038.7975   -4131.5001   -61.176384    38.053555    38.053555    38.053555            0            0            0   0.78489031 
   35000    56281.387    360.06291   -550.11349     2145.485   -934.23592    1211.2491    759.71248   -1573.3483    2762.8305   -2943.3591    692.91648    560.69058    755.51614            0    2009.1232   -4132.8412   -59.896953    38.322597    38.322597    38.322597            0            0            0   0.76847527 
   36000     55948.41    356.51929    1573.9418    2124.3698   -1069.8338    1054.5361    2338.7942   -1551.2222    2674.6836   -3007.9503    680.54967     541.4643    716.10259            0    1938.1166   -4131.4117    -60.25343    38.246871    38.246871    38.246871            0            0            0   0.77304886 
   37000    56829.439    350.35137   -43.197074    2087.6175   -992.60905    1095.0084    1059.2067   -1545.8703    2746.0531   -2932.0449    661.03182    555.21764    723.18642            0    1939.4359   -4132.2278   -59.319318    38.446587    38.446587    38.446587            0            0            0   0.76106424 
   38000    55518.532    360.81671    927.15987    2149.9766   -953.00102    1196.9756    1947.6792   -1588.4737    2756.2766   -2964.0579    681.88943    581.03029    748.13714            0    2011.0569   -4131.8608    -60.71997    38.148663    38.148663    38.148663            0            0            0   0.77903454 
   39000    55024.304    357.50656    623.01965    2130.2526   -979.88302    1150.3696    1650.3261   -1539.2766    2667.9032   -3003.6855    676.34612    605.09584     742.3605            0    2023.8025   -4132.3121   -61.265356    38.035125    38.035125    38.035125            0            0            0   0.78603182 
   40000    56423.685    362.52322    529.62094    2160.1451   -986.96253    1173.1826    1608.9979   -1567.6174    2764.0075   -2936.1182     650.6994    585.09642    713.35986            0    1949.1557   -4132.5083   -59.745896    38.354867    38.354867    38.354867            0            0            0   0.76653721 
   41000    56570.535    366.49235   -652.83963    2183.7957   -1003.8752    1179.9205    641.31267   -1571.8548     2733.845   -2967.6699     663.4315    617.69843    682.66473            0    1963.7947   -4129.6601   -59.590802    38.388113    38.388113    38.388113            0            0            0   0.76454737 
   42000    56131.607    364.43291    437.98605    2171.5243   -973.48875    1198.0355    1556.5805   -1596.9011     2775.083   -2952.7436    643.53158    583.86511    751.85815            0    1979.2548   -4130.9255    -60.05678    38.288571    38.288571    38.288571            0            0            0   0.77052584 
   43000    56266.138    367.52511     32.94016    2189.9495   -1022.5913    1167.3582    1194.3884   -1601.2084     2716.954   -3014.3578    677.13118    583.43046    731.20486            0    1991.7665   -4130.1034   -59.913185    38.319136    38.319136    38.319136            0            0            0   0.76868353 
   44000    56634.865    348.30758   -420.14802    2075.4392   -894.85059    1180.5886    833.56259   -1556.9911    2797.5192   -2890.8449    683.15412    582.01687    730.82328            0    1995.9943    -4131.373   -59.523115    38.402659    38.402659    38.402659            0            0            0   0.76367894 
   45000    57010.351    357.08996    625.63023    2127.7703   -888.81861    1238.9517    1759.1241   -1584.1467    2827.1637   -2889.5937    678.10474    561.64125    761.02908            0    2000.7751   -4132.6107   -59.131079    38.487341    38.487341    38.487341            0            0            0   0.75864915 
   46000    57279.231    363.02911    346.40165    2163.1595   -884.21643    1278.9431    1568.3128   -1542.7853    2750.0628   -2924.6082    693.71214    574.04947    772.63012            0    2040.3917   -4131.8856   -58.853506    38.547752    38.547752    38.547752            0            0            0    0.7550879 
   47000     55633.25    364.24787    211.06202    2170.4217    -975.2696    1195.1521    1366.3981    -1585.584      2747.49   -2970.5618    662.86324    581.91196    750.51703            0    1995.2922   -4132.4679   -60.594763    38.174921    38.174921    38.174921            0            0            0   0.77742814 
   48000    55982.647    360.76046    1064.7103    2149.6414   -1008.7074     1140.934    2010.2162    -1632.176    2770.7661   -2993.0302    673.94825    581.27404    729.10046            0    1984.3228   -4131.6202    -60.21658    38.254672    38.254672    38.254672            0            0            0   0.77257608 
   49000    56325.581    360.90596   -368.64598    2150.5084   -938.98309    1211.5254    908.70081   -1574.0214    2739.5586   -2966.1741    664.55455     599.7925    762.84398            0     2027.191   -4131.7113   -59.849957    38.332625    38.332625    38.332625            0            0            0   0.76787231 
   50000    55175.518    360.53559    154.02993    2148.3015   -1028.3695     1119.932    1243.8766    -1637.854    2768.4894   -3000.4671    648.83187    616.08272    707.18296            0    1972.0975   -4131.1025   -61.097452    38.069935    38.069935    38.069935            0            0            0   0.78387762 
   50519    55323.276    352.54711    1221.9379    2100.7011   -1029.6356    1071.0655    2056.9656   -1614.1455    2728.5563   -3015.7468    650.63272    578.26543    757.21311            0    1986.1113   -4130.1576   -60.934273    38.103888    38.103888    38.103888            0            0            0   0.78178404 
Loop time of 97.3659 on 48 procs for 50000 steps with 2000 atoms

Performance: 44.369 ns/day, 0.541 hours/ns, 513.527 timesteps/s
42.0% CPU use with 48 MPI tasks x 1 OpenMP threads

MPI task timing breakdown:
Section |  min time  |  avg time  |  max time  |%varavg| %total
---------------------------------------------------------------
Pair    | 9.8609     | 13.281     | 16.762     |  36.4 | 13.64
Bond    | 0.52953    | 0.6387     | 0.74113    |   5.8 |  0.66
Kspace  | 14.447     | 17.99      | 23.038     |  44.7 | 18.48
Neigh   | 3.2196     | 3.8025     | 4.2837     |  17.7 |  3.91
Comm    | 31.597     | 36.232     | 42.345     |  43.4 | 37.21
Output  | 0.054538   | 0.055575   | 0.063966   |   0.5 |  0.06
Modify  | 17.252     | 20.232     | 22.977     |  33.4 | 20.78
Other   |            | 5.133      |            |       |  5.27

Nlocal:    41.6667 ave 55 max 30 min
Histogram: 1 1 10 7 9 6 6 5 2 1
Nghost:    2365.08 ave 2421 max 2328 min
Histogram: 5 5 8 7 9 5 3 3 2 1
Neighs:    10626.9 ave 13413 max 7556 min
Histogram: 1 5 5 4 5 11 5 4 6 2

Total # of neighbors = 510093
Ave neighs/atom = 255.047
Ave special neighs/atom = 4.8
Neighbor list builds = 5008
Dangerous builds = 0

unfix npt_density

fix reshape_box all deform 1 x final 0.0 37.4495 y final 0.0 37.4495 z final 0.0 37.4495 units box

run 100000
Ewald initialization ...
  using 12-bit tables for long-range coulomb (src/kspace.cpp:332)
  G vector (1/distance) = 0.148684
  estimated absolute RMS force accuracy = 0.0377171
  estimated relative force accuracy = 0.000113584
  KSpace vectors: actual max1d max3d = 128 4 364
                  kxmax kymax kzmax  = 4 4 4
Per MPI rank memory allocation (min/avg/max) = 17.62 | 17.81 | 18.12 Mbytes
Step Volume Temp Press KinEng PotEng TotEng Enthalpy E_vdwl E_coul E_pair E_bond E_angle E_dihed E_impro E_mol E_long E_tail Lx Ly Lz Xy Xz Yz Density 
   50519    55323.276    352.54711    1221.7995    2100.7011   -1029.7237    1070.9774    2056.7658   -1614.1455     2763.501    -3015.835    650.63272    578.26543    757.21311            0    1986.1113   -4165.1904   -60.934273    38.103888    38.103888    38.103888            0            0            0   0.78178404 
   51000    55309.567    352.54711    1388.8426    2100.7011   -1029.8416    1070.8595    2191.1462   -1613.7802    2763.3573   -3015.6145    650.29445    578.26543    757.21311            0     1985.773   -4165.1917   -60.949376    38.100741    38.100741    38.100741            0            0            0   0.78197781 
   52000    55281.073    352.54711    1737.3663    2100.7011   -1029.9075    1070.7936    2471.4891   -1613.0099    2763.1259   -3015.0783    649.69229    578.26543    757.21311            0    1985.1708   -4165.1943   -60.980791    38.094197    38.094197    38.094197            0            0            0   0.78238087 
   53000    55252.589    352.54711    2086.2781    2100.7011    -1029.805     1070.896    2752.0238   -1612.2318    2762.9164   -3014.5123    649.22874    578.26543    757.21311            0    1984.7073   -4165.1969   -61.012228    38.087653    38.087653    38.087653            0            0            0   0.78278421 
   54000    55224.115    352.54711    2435.5352    2100.7011   -1029.5456    1071.1555    3032.7041   -1611.4501    2762.7217   -3013.9279    648.90382    578.26543    757.21311            0    1984.3824   -4165.1996   -61.043687    38.081109    38.081109    38.081109            0            0            0   0.78318782 
   55000    55195.651    352.54711    2785.0586    2100.7011   -1029.1466    1071.5545    3313.4485   -1610.6632    2762.5228   -3013.3426    648.71751    578.26543    757.21311            0     1984.196   -4165.2022   -61.075167    38.074565    38.074565    38.074565            0            0            0   0.78359171 
   56000    55167.196    352.54711    3134.3363    2100.7011   -1028.7269    1071.9742    3593.7263    -1609.874    2762.2036   -3012.8752    648.66981    578.26543    757.21311            0    1984.1484   -4165.2048   -61.106669    38.068021    38.068021    38.068021            0            0            0   0.78399587 
   57000    55138.751    352.54711    3484.7976    2100.7011   -1027.9552    1072.7458    3875.0184   -1609.0748    2762.0877   -3012.1945    648.76074    578.26543    757.21311            0    1984.2393   -4165.2074   -61.138192    38.061477    38.061477    38.061477            0            0            0   0.78440032 
   58000    55110.316    352.54711    3834.6852    2100.7011   -1027.2383    1073.4628    4155.5044   -1608.2725    2761.7754   -3011.7071    648.99027    578.26543    757.21311            0    1984.4688   -4165.2101   -61.169738    38.054934    38.054934    38.054934            0            0            0   0.78480504 
   59000    55081.891    352.54711    4185.3206    2100.7011   -1026.2699    1074.4312    4436.5531   -1607.4607    2761.5665   -3011.1068    649.35843    578.26543    757.21311            0     1984.837   -4165.2127   -61.201304     38.04839     38.04839     38.04839            0            0            0   0.78521004 
   60000    55053.476    352.54711    4535.9673    2100.7011   -1025.2203    1075.4808     4717.402   -1606.6429    2761.2942    -3010.564     649.8652    578.26543    757.21311            0    1985.3437   -4165.2153   -61.232893    38.041846    38.041846    38.041846            0            0            0   0.78561532 
   61000     55025.07    352.54711     4887.024    2100.7011   -1023.9998    1076.7013    4998.4608   -1605.8226    2761.0515   -3009.9889    650.51059    578.26543    757.21311            0    1985.9891   -4165.2179   -61.264503    38.035302    38.035302    38.035302            0            0            0   0.78602088 
   62000    54996.674    352.54711    5238.5406    2100.7011   -1022.5962    1078.1049    5279.7815    -1604.997    2760.8482   -3009.3693    651.29459    578.26543    757.21311            0    1986.7731   -4165.2206   -61.296136    38.028758    38.028758    38.028758            0            0            0   0.78642672 
   63000    54968.288    352.54711    5590.0201    2100.7011    -1021.121      1079.58    5560.8537   -1604.1617    2760.5681   -3008.8168    652.21721    578.26543    757.21311            0    1987.6958   -4165.2232   -61.327789    38.022214    38.022214    38.022214            0            0            0   0.78683284 
   64000    54939.911    352.54711       5941.9    2100.7011   -1019.4769    1081.2241    5842.1255    -1603.322    2760.3138   -3008.2339    653.27845    578.26543    757.21311            0     1988.757   -4165.2258   -61.359465     38.01567     38.01567     38.01567            0            0            0   0.78723924 
   65000    54911.545    352.54711    6293.8601    2100.7011    -1017.735     1082.966    6123.2689   -1602.4734      2760.01   -3007.6919     654.4783    578.26543    757.21311            0    1989.9568   -4165.2284   -61.391163    38.009126    38.009126    38.009126            0            0            0   0.78764592 
   66000    54883.188    352.54711    6645.9709    2100.7011   -1015.8797    1084.8214    6404.3562   -1601.6175    2759.6736    -3007.175    655.81677    578.26543    757.21311            0    1991.2953    -4165.231   -61.422882    38.002582    38.002582    38.002582            0            0            0   0.78805287 
   67000    54854.841    352.54711    6999.1973    2100.7011    -1013.693    1087.0081     6686.377   -1600.7589    2759.5272   -3006.4654    657.29385    578.26543    757.21311            0    1992.7724   -4165.2337   -61.454623    37.996039    37.996039    37.996039            0            0            0   0.78846011 
   68000    54826.504    352.54711    7352.6749    2100.7011   -1011.3724    1089.3287    6968.4416   -1599.8979    2759.3737   -3005.7605    658.90955    578.26543    757.21311            0    1994.3881   -4165.2363   -61.486386    37.989495    37.989495    37.989495            0            0            0   0.78886763 
   69000    54798.176    352.54711    7706.4891    2100.7011   -1008.8949    1091.8061     7250.641   -1599.0259    2759.2275   -3005.0373    660.66387    578.26543    757.21311            0    1996.1424   -4165.2389   -61.518171    37.982951    37.982951    37.982951            0            0            0   0.78927543 
   70000    54769.858    352.54711    8059.8333    2100.7011   -1006.4482    1094.2529    7532.1431   -1598.1512    2758.9092   -3004.4835     662.5568    578.26543    757.21311            0    1998.0353   -4165.2415   -61.549978    37.976407    37.976407    37.976407            0            0            0   0.78968351 
   71000     54741.55    352.54711    8413.0565    2100.7011   -1003.9495    1096.7516    7813.3098   -1597.2674    2758.4951   -3004.0164    664.58835    578.26543    757.21311            0    2000.0669   -4165.2442   -61.581807    37.969863    37.969863    37.969863            0            0            0   0.79009188 
   72000    54713.252    352.54711    8767.3813    2100.7011   -1001.1207    1099.5804    8095.3954   -1596.3748    2758.2639   -3003.3577    666.75852    578.26543    757.21311            0    2002.2371   -4165.2468   -61.613658    37.963319    37.963319    37.963319            0            0            0   0.79050052 
   73000    54684.963    352.54711     9121.852    2100.7011   -998.17908     1102.522    8377.4188   -1595.4721    2757.9966   -3002.7249     669.0673    578.26543    757.21311            0    2004.5458   -4165.2494    -61.64553    37.956775    37.956775    37.956775            0            0            0   0.79090944 
   74000    54656.685    352.54711    9476.4933    2100.7011   -995.12166    1105.5794    8659.4029    -1594.565    2757.7022   -3002.1149     671.5147    578.26543    757.21311            0    2006.9932    -4165.252   -61.677425    37.950231    37.950231    37.950231            0            0            0   0.79131865 
   75000    54628.416    352.54711     9832.061    2100.7011   -991.77613    1108.9249    8942.1221   -1593.6535    2757.5528   -3001.3554    674.10072    578.26543    757.21311            0    2009.5793   -4165.2547   -61.709342    37.943688    37.943688    37.943688            0            0            0   0.79172814 
   76000    54600.156    352.54711    10187.876    2100.7011    -988.2954    1112.4057    9224.8819   -1592.7329    2757.3909   -3000.5993    676.82535    578.26543    757.21311            0    2012.3039   -4165.2573   -61.741281    37.937144    37.937144    37.937144            0            0            0   0.79213792 
   77000    54571.907    352.54711      10543.3    2100.7011   -984.82642    1115.8746    9507.0262   -1591.8067     2757.073   -2999.9936    679.68859    578.26543    757.21311            0    2015.1671   -4165.2599   -61.773242      37.9306      37.9306      37.9306            0            0            0   0.79254797 
   78000    54543.667    352.54711    10899.141    2100.7011   -981.18583    1119.5152    9789.3836   -1590.8778    2756.7855   -2999.3548    682.69046    578.26543    757.21311            0     2018.169   -4165.2625   -61.805224    37.924056    37.924056    37.924056            0            0            0   0.79295831 
   79000    54515.437    352.54711    11255.326    2100.7011   -977.39017    1123.3109    10071.877   -1589.9436    2756.5091   -2998.6996    685.83094    578.26543    757.21311            0    2021.3095   -4165.2652   -61.837229    37.917512    37.917512    37.917512            0            0            0   0.79336893 
   80000    54487.217    352.54711    11611.901    2100.7011   -973.42691    1127.2741    10354.557   -1588.9995    2756.2518   -2998.0155    689.11003    578.26543    757.21311            0    2024.5886   -4165.2678   -61.869256    37.910968    37.910968    37.910968            0            0            0   0.79377984 
   81000    54459.006    352.54711    11968.821    2100.7011   -969.31108      1131.39    10637.372   -1588.0568    2756.0098   -2997.3174    692.52775    578.26543    757.21311            0    2028.0063   -4165.2704   -61.901306    37.904424    37.904424    37.904424            0            0            0   0.79419103 
   82000    54430.805    352.54711     12325.88    2100.7011   -965.08226    1135.6188    10920.117   -1587.0998     2755.728   -2996.6449    696.08407    578.26543    757.21311            0    2031.5626    -4165.273   -61.933377     37.89788     37.89788     37.89788            0            0            0    0.7946025 
   83000    54402.614    352.54711    12682.904    2100.7011   -960.78538    1139.9157    11202.612   -1586.1404    2755.3731   -2996.0429    699.77902    578.26543    757.21311            0    2035.2576   -4165.2756    -61.96547    37.891336    37.891336    37.891336            0            0            0   0.79501426 
   84000    54374.433    352.54711     13041.56    2100.7011   -956.04205     1144.659    11486.555   -1585.1752    2755.3203   -2995.1332    703.61258    578.26543    757.21311            0    2039.0911   -4165.2783   -61.997586    37.884793    37.884793    37.884793            0            0            0    0.7954263 
   85000    54346.261    352.54711    13400.179    2100.7011   -951.22695    1149.4741    11770.248   -1584.1975    2755.1882   -2994.2903    707.58476    578.26543    757.21311            0    2043.0633   -4165.2809   -62.029724    37.878249    37.878249    37.878249            0            0            0   0.79583863 
   86000    54318.099    352.54711     13758.23    2100.7011   -946.46159    1154.2395    12053.148   -1583.2096    2754.8574   -2993.6357    711.69555    578.26543    757.21311            0    2047.1741   -4165.2835   -62.061884    37.871705    37.871705    37.871705            0            0            0   0.79625124 
   87000    54289.947    352.54711    14117.297    2100.7011   -941.39088    1159.3102    12336.867   -1582.2212    2754.6929   -2992.8144    715.94496    578.26543    757.21311            0    2051.4235   -4165.2861   -62.094066    37.865161    37.865161    37.865161            0            0            0   0.79666414 
   88000    54261.805    352.54711    14475.954    2100.7011   -936.33688    1164.3642     12619.95   -1581.2289    2754.3692   -2992.1484    720.33299    578.26543    757.21311            0    2055.8115   -4165.2888   -62.126271    37.858617    37.858617    37.858617            0            0            0   0.79707732 
   89000    54233.672    352.54711    14835.425    2100.7011   -931.02006     1169.681    12903.649   -1580.2261    2754.1593   -2991.3582    724.85963    578.26543    757.21311            0    2060.3382   -4165.2914   -62.158498    37.852073    37.852073    37.852073            0            0            0   0.79749079 
   90000    54205.549    352.54711    15195.099    2100.7011   -925.57992    1175.1211    13187.339   -1579.2167    2753.9273   -2990.5834    729.52489    578.26543    757.21311            0    2065.0034    -4165.294   -62.190747    37.845529    37.845529    37.845529            0            0            0   0.79790454 
   91000    54177.436    352.54711    15554.967    2100.7011   -920.01748    1180.6836     13471.01   -1578.1978    2753.6696   -2989.8248    734.32876    578.26543    757.21311            0    2069.8073   -4165.2966   -62.223018    37.838985    37.838985    37.838985            0            0            0   0.79831858 
   92000    54149.333    352.54711    15915.661    2100.7011   -914.19266    1186.5084    13755.304   -1577.1752    2753.5319   -2988.9425    739.27126    578.26543    757.21311            0    2074.7498   -4165.2992   -62.255312    37.832441    37.832441    37.832441            0            0            0   0.79873291 
   93000    54121.239    352.54711    16275.659    2100.7011   -908.44667    1192.2544    14038.677   -1576.1442    2753.1685   -2988.2776    744.35236    578.26543    757.21311            0    2079.8309   -4165.3019   -62.287628    37.825898    37.825898    37.825898            0            0            0   0.79914753 
   94000    54093.155    352.54711    16637.082    2100.7011   -902.30271    1198.3983    14323.279    -1575.107    2753.0581   -2987.3533    749.57209    578.26543    757.21311            0    2085.0506   -4165.3045   -62.319966    37.819354    37.819354    37.819354            0            0            0   0.79956243 
   95000     54065.08    352.54711    16998.366    2100.7011   -896.11305     1204.588    14607.523   -1574.0634    2752.8485    -2986.522    754.93043    578.26543    757.21311            0     2090.409   -4165.3071   -62.352327     37.81281     37.81281     37.81281            0            0            0   0.79997762 
   96000    54037.016    352.54711     17360.12    2100.7011    -889.7404    1210.9607    14892.027   -1573.0131    2752.6765   -2985.6463    760.42738    578.26543    757.21311            0    2095.9059   -4165.3097   -62.384711    37.806266    37.806266    37.806266            0            0            0   0.80039309 
   97000    54008.961    352.54711    17721.726    2100.7011   -883.32432    1217.3767    15176.166   -1571.9572    2752.4037   -2984.8658    766.06296    578.26543    757.21311            0    2101.5415   -4165.3124   -62.417116    37.799722    37.799722    37.799722            0            0            0   0.80080886 
   98000    53980.915    352.54711    18083.562    2100.7011   -876.77982    1223.9212    15460.319   -1570.8952    2752.1146   -2984.0955    771.83714    578.26543    757.21311            0    2107.3157    -4165.315   -62.449544    37.793178    37.793178    37.793178            0            0            0   0.80122491 
   99000     53952.88    352.54711    18446.344    2100.7011   -869.94535    1230.7557    15745.214   -1569.8256    2751.9693   -2983.1738    777.74995    578.26543    757.21311            0    2113.2285   -4165.3176   -62.481995    37.786634    37.786634    37.786634            0            0            0   0.80164125 
  100000    53924.854    352.54711    18809.221    2100.7011   -863.01469    1237.6864    16029.986   -1568.7542    2751.7798   -2982.2946    783.80137    578.26543    757.21311            0    2119.2799   -4165.3202   -62.514468     37.78009     37.78009     37.78009            0            0            0   0.80205788 
  101000    53896.838    352.54711    19172.118    2100.7011   -856.00207     1244.699    16314.561    -1567.675    2751.5258    -2981.472    789.99141    578.26543    757.21311            0      2125.47   -4165.3228   -62.546964    37.773547    37.773547    37.773547            0            0            0   0.80247479 
  102000    53868.832    352.54711    19535.594    2100.7011    -848.7805    1251.9206    16599.506   -1566.5835    2751.3298   -2980.5791    796.32006    578.26543    757.21311            0    2131.7986   -4165.3255   -62.579482    37.767003    37.767003    37.767003            0            0            0     0.802892 
  103000    53840.835    352.54711    19899.318    2100.7011   -841.42443    1259.2766    16884.487   -1565.4811    2751.1188   -2979.6903    802.78733    578.26543    757.21311            0    2138.2659   -4165.3281   -62.612023    37.760459    37.760459    37.760459            0            0            0    0.8033095 
  104000    53812.848    352.54711    20263.438    2100.7011   -833.90329    1266.7978    17169.649   -1564.3728    2750.9285    -2978.775    809.39322    578.26543    757.21311            0    2144.8718   -4165.3307   -62.644586    37.753915    37.753915    37.753915            0            0            0   0.80372728 
  105000    53784.871    352.54711    20628.233    2100.7011   -826.15563    1274.5454    17455.273   -1563.2607    2750.8222   -2977.7719    816.13772    578.26543    757.21311            0    2151.6163   -4165.3333   -62.677172    37.747371    37.747371    37.747371            0            0            0   0.80414536 
  106000    53756.903    352.54711    20992.493    2100.7011   -818.44903     1282.252    17740.142   -1562.1375     2750.525   -2976.9484    823.02084    578.26543    757.21311            0    2158.4994   -4165.3359    -62.70978    37.740827    37.740827    37.740827            0            0            0   0.80456372 
  107000    53728.945    352.54711    21357.625    2100.7011   -810.47251    1290.2285    18025.669   -1561.0119    2750.3569   -2975.9936    830.04258    578.26543    757.21311            0    2165.5211   -4165.3386   -62.742411    37.734283    37.734283    37.734283            0            0            0   0.80498238 
  108000    53700.997    352.54711    21722.419    2100.7011   -802.49334    1298.2077    18310.641   -1559.8768    2750.0431   -2975.1748    837.20293    578.26543    757.21311            0    2172.6815   -4165.3412   -62.775065    37.727739    37.727739    37.727739            0            0            0   0.80540132 
  109000    53673.059    352.54711    22087.405    2100.7011   -794.39431    1306.3068    18595.588   -1558.7332    2749.7023   -2974.3747     844.5019    578.26543    757.21311            0    2179.9804   -4165.3438   -62.807741    37.721195    37.721195    37.721195            0            0            0   0.80582056 
  110000     53645.13    352.54711    22453.135    2100.7011   -786.05354    1314.6475    18881.064   -1557.5855    2749.4603   -2973.4716    851.93948    578.26543    757.21311            0     2187.418   -4165.3464    -62.84044    37.714652    37.714652    37.714652            0            0            0   0.80624009 
  111000    53617.211    352.54711    22818.788    2100.7011   -777.65246    1323.0486    19166.246    -1556.429    2749.1314   -2972.6467    859.51568    578.26543    757.21311            0    2194.9942    -4165.349   -62.873162    37.708108    37.708108    37.708108            0            0            0    0.8066599 
  112000    53589.301    352.54711    23185.531    2100.7011   -768.93187    1331.7692    19452.305   -1555.2667    2748.9775   -2971.6409     867.2305    578.26543    757.21311            0     2202.709   -4165.3517   -62.905907    37.701564    37.701564    37.701564            0            0            0   0.80708001 
  113000    53561.402    352.54711    23551.937    2100.7011   -760.21095    1340.4901    19737.806   -1554.0995    2748.6804   -2970.7734    875.08393    578.26543    757.21311            0    2210.5625   -4165.3543   -62.938674     37.69502     37.69502     37.69502            0            0            0   0.80750042 
  114000    53533.511    352.54711    23918.992    2100.7011   -751.26926    1349.4318    20023.738   -1552.9255    2748.4586   -2969.8238    883.07598    578.26543    757.21311            0    2218.5545   -4165.3569   -62.971464    37.688476    37.688476    37.688476            0            0            0   0.80792111 
  115000    53505.631    352.54711    24287.115    2100.7011     -742.013    1358.6881    20310.525   -1551.7442    2748.4056   -2968.6982    891.20664    578.26543    757.21311            0    2226.6852   -4165.3595   -63.004277    37.681932    37.681932    37.681932            0            0            0    0.8083421 
  116000     53477.76    352.54711    24654.948    2100.7011   -732.74276    1367.9583    20596.803   -1550.5515    2748.2164   -2967.6972    899.47592    578.26543    757.21311            0    2234.9545   -4165.3622   -63.037112    37.675388    37.675388    37.675388            0            0            0   0.80876338 
  117000    53449.899    352.54711    25023.726    2100.7011   -723.18671    1377.5144    20883.808   -1549.3538    2748.1695   -2966.5491    907.88382    578.26543    757.21311            0    2243.3624   -4165.3648   -63.069971    37.668844    37.668844    37.668844            0            0            0   0.80918495 
  118000    53422.048    352.54711    25391.479    2100.7011   -713.78225    1386.9188    21169.567   -1548.1476    2747.8238   -2965.6911    916.43034    578.26543    757.21311            0    2251.9089   -4165.3674   -63.102852    37.662301    37.662301    37.662301            0            0            0   0.80960681 
  119000    53394.206    352.54711    25760.092    2100.7011    -704.1102    1396.5909    21455.968   -1546.9349    2747.6007   -2964.7042    925.11547    578.26543    757.21311            0     2260.594     -4165.37   -63.135756    37.655757    37.655757    37.655757            0            0            0   0.81002897 
  120000    53366.374    352.54711    26129.372    2100.7011   -694.21575    1406.4853    21742.815   -1545.7199    2747.4591   -2963.6335    933.93921    578.26543    757.21311            0    2269.4178   -4165.3726   -63.168683    37.649213    37.649213    37.649213            0            0            0   0.81045142 
  121000    53338.552    352.54711    26498.278    2100.7011   -684.32663    1416.3744    22029.069   -1544.4943    2747.1628   -2962.7067    942.90158    578.26543    757.21311            0    2278.3801   -4165.3753   -63.201633    37.642669    37.642669    37.642669            0            0            0   0.81087417 
  122000     53310.74    352.54711    26867.289    2100.7011   -674.33724    1426.3638    22315.209   -1543.2597    2746.8193   -2961.8183    952.00255    578.26543    757.21311            0    2287.4811   -4165.3779   -63.234605    37.636125    37.636125    37.636125            0            0            0   0.81129721 
  123000    53282.937    352.54711    27237.065    2100.7011   -664.10078    1436.6003    22601.896    -1542.015     2746.574   -2960.8215    961.24215    578.26543    757.21311            0    2296.7207   -4165.3805   -63.267601    37.629581    37.629581    37.629581            0            0            0   0.81172054 
  124000    53255.143    352.54711    27607.441    2100.7011   -653.65566    1447.0454    22888.962   -1540.7649    2746.3934   -2959.7546    970.62036    578.26543    757.21311            0    2306.0989   -4165.3831    -63.30062    37.623037    37.623037    37.623037            0            0            0   0.81214417 
  125000     53227.36    352.54711    27978.063    2100.7011    -643.0797    1457.6214    23176.053   -1539.5069    2746.1972   -2958.6954    980.13719    578.26543    757.21311            0    2315.6157   -4165.3857   -63.333662    37.616493    37.616493    37.616493            0            0            0   0.81256809 
  126000    53199.586    352.54711    28348.595    2100.7011   -632.44754    1468.2535    23462.834   -1538.2408    2745.9104   -2957.7187    989.79263    578.26543    757.21311            0    2325.2712   -4165.3883   -63.366726    37.609949    37.609949    37.609949            0            0            0   0.81299231 
  127000    53171.821    352.54711    28719.116    2100.7011   -621.74192    1478.9591    23749.383   -1536.9679    2745.5517   -2956.8072    999.58669    578.26543    757.21311            0    2335.0652    -4165.391   -63.399814    37.603406    37.603406    37.603406            0            0            0   0.81341682 
  128000    53144.067    352.54711    29090.706    2100.7011    -610.7236    1489.9775    24036.778   -1535.6882    2745.3603   -2955.7215    1009.5194    578.26543    757.21311            0    2344.9979   -4165.3936   -63.432925    37.596862    37.596862    37.596862            0            0            0   0.81384163 
  129000    53116.322    352.54711    29462.469    2100.7011   -599.59213    1501.1089    24324.125   -1534.4032    2745.1381   -2954.6613    1019.5907    578.26543    757.21311            0    2355.0692   -4165.3962   -63.466058    37.590318    37.590318    37.590318            0            0            0   0.81426674 
  130000    53088.586    352.54711    29834.696    2100.7011   -588.28084    1512.4202    24611.712   -1533.1071     2744.946     -2953.56    1029.8006    578.26543    757.21311            0    2365.2791   -4165.3988   -63.499215    37.583774    37.583774    37.583774            0            0            0   0.81469214 
  131000    53060.861    352.54711    30207.063    2100.7011   -576.86171    1523.8393     24899.22   -1531.8025    2744.7146   -2952.4893    1040.1491    578.26543    757.21311            0    2375.6276   -4165.4014   -63.532395     37.57723     37.57723     37.57723            0            0            0   0.81511784 
  132000    53033.145    352.54711    30579.838    2100.7011   -565.27818    1535.4229     25186.91   -1530.4931    2744.5042    -2951.393    1050.6362    578.26543    757.21311            0    2386.1148   -4165.4041   -63.565598    37.570686    37.570686    37.570686            0            0            0   0.81554383 
  133000    53005.438    352.54711    30952.373    2100.7011   -553.67212    1547.0289     25474.14   -1529.1766    2744.1706   -2950.4127     1061.262    578.26543    757.21311            0    2396.7405   -4165.4067   -63.598825    37.564142    37.564142    37.564142            0            0            0   0.81597012 
  134000    52977.742    352.54711    31325.599    2100.7011   -541.83663    1558.8644    25761.837   -1527.8507    2743.9185   -2949.3415    1072.0264    578.26543    757.21311            0    2407.5049   -4165.4093   -63.632074    37.557598    37.557598    37.557598            0            0            0   0.81639671 
  135000    52950.055    352.54711    31699.132    2100.7011   -529.85613    1570.8449     26049.62   -1526.5135    2743.6614    -2948.264    1082.9294    578.26543    757.21311            0    2418.4079   -4165.4119   -63.665347    37.551055    37.551055    37.551055            0            0            0    0.8168236 
  136000    52922.377    352.54711    32072.889    2100.7011   -517.75319    1582.9479    26337.399   -1525.1746    2743.3864   -2947.2027     1093.971    578.26543    757.21311            0    2429.4495   -4165.4145   -63.698642    37.544511    37.544511    37.544511            0            0            0   0.81725078 
  137000    52894.709    352.54711    32448.045    2100.7011   -505.26681    1595.4342    26626.346   -1523.8295    2743.3501   -2945.8965    1105.1512    578.26543    757.21311            0    2440.6297   -4165.4172   -63.731961    37.537967    37.537967    37.537967            0            0            0   0.81767826 
  138000    52867.051    352.54711    32822.398    2100.7011   -492.88013    1607.8209    26914.275   -1522.4732    2743.0643   -2944.8287      1116.47    578.26543    757.21311            0    2451.9486   -4165.4198   -63.765304    37.531423    37.531423    37.531423            0            0            0   0.81810604 
  139000    52839.403    352.54711    33197.572    2100.7011   -480.23625    1620.4648    27202.796   -1521.1063    2742.8864   -2943.6423    1127.9275    578.26543    757.21311            0     2463.406   -4165.4224   -63.798669    37.524879    37.524879    37.524879            0            0            0   0.81853412 
  140000    52811.764    352.54711    33572.861    2100.7011   -467.49172    1633.2093    27491.208   -1519.7327    2742.6639   -2942.4938    1139.5236    578.26543    757.21311            0    2475.0021    -4165.425   -63.832058    37.518335    37.518335    37.518335            0            0            0   0.81896249 
  141000    52784.135    352.54711    33947.678    2100.7011   -454.77524    1645.9258    27778.932   -1518.3511    2742.2667    -2941.512    1151.2582    578.26543    757.21311            0    2486.7368   -4165.4276    -63.86547    37.511791    37.511791    37.511791            0            0            0   0.81939117 
  142000    52756.515    352.54711     34323.56    2100.7011   -441.74985    1658.9512    28067.487   -1516.9638    2742.0341   -2940.3599    1163.1316    578.26543    757.21311            0    2498.6101   -4165.4302   -63.898905    37.505247    37.505247    37.505247            0            0            0   0.81982015 
  143000    52728.905    352.54711    34700.132    2100.7011   -428.49867    1672.2024      28356.5   -1515.5704    2741.8826   -2939.1207    1175.1435    578.26543    757.21311            0     2510.622   -4165.4329   -63.932364    37.498703    37.498703    37.498703            0            0            0   0.82024942 
  144000    52701.305    352.54711    35076.522    2100.7011   -415.20957    1685.4915    28645.112   -1514.1631    2741.6165   -2937.9821     1187.294    578.26543    757.21311            0    2522.7725   -4165.4355   -63.965846     37.49216     37.49216     37.49216            0            0            0   0.82067899 
  145000    52673.714    352.54711    35453.564    2100.7011   -401.70383    1698.9972    28934.145   -1512.7536    2741.4262   -2936.7655    1199.5832    578.26543    757.21311            0    2535.0617   -4165.4381   -63.999352    37.485616    37.485616    37.485616            0            0            0   0.82110887 
  146000    52646.133    352.54711    35830.533    2100.7011    -388.1369    1712.5642    29222.884   -1511.3319    2741.1463   -2935.6264    1212.0109    578.26543    757.21311            0    2547.4895   -4165.4407   -64.032881    37.479072    37.479072    37.479072            0            0            0   0.82153904 
  147000    52618.562    352.54711    36207.912    2100.7011   -374.40445    1726.2966    29511.805      -1509.9     2740.883   -2934.4603    1224.5773    578.26543    757.21311            0    2560.0559   -4165.4433   -64.066433    37.472528    37.472528    37.472528            0            0            0   0.82196952 
  148000        52591    352.54711    36585.689    2100.7011   -360.50947    1740.1916    29800.895   -1508.4602    2740.6359   -2933.2703    1237.2823    578.26543    757.21311            0    2572.7609    -4165.446   -64.100009    37.465984    37.465984    37.465984            0            0            0   0.82240029 
  149000    52563.448    352.54711    36963.546    2100.7011   -346.52127    1754.1798    30089.842    -1507.013    2740.3358   -2932.1257    1250.1259    578.26543    757.21311            0    2585.6045   -4165.4486   -64.133608     37.45944     37.45944     37.45944            0            0            0   0.82283137 
  150000    52535.906    352.54711    37341.874    2100.7011   -332.35518    1768.3459    30379.029   -1505.5585    2740.0678   -2930.9419    1263.1082    578.26543    757.21311            0    2598.5867   -4165.4512   -64.167231    37.452896    37.452896    37.452896            0            0            0   0.82326275 
  150519    52521.615    352.54711    37538.348    2100.7011   -324.94713    1775.7539    30529.148   -1504.8006    2739.9269   -2930.3263    1269.9006    578.26543    757.21311            0    2605.3791   -4165.4526    -64.18469      37.4495      37.4495      37.4495            0            0            0   0.82348675 
Loop time of 142.495 on 48 procs for 100000 steps with 2000 atoms

Performance: 60.634 ns/day, 0.396 hours/ns, 701.779 timesteps/s
45.0% CPU use with 48 MPI tasks x 1 OpenMP threads

MPI task timing breakdown:
Section |  min time  |  avg time  |  max time  |%varavg| %total
---------------------------------------------------------------
Pair    | 18.821     | 26.283     | 32.24      |  67.6 | 18.45
Bond    | 0.81381    | 1.0953     | 1.4043     |  11.0 |  0.77
Kspace  | 25.362     | 35.89      | 44.745     |  73.9 | 25.19
Neigh   | 0.0059885  | 0.0069721  | 0.0078503  |   0.8 |  0.00
Comm    | 56.619     | 64.848     | 77.99      |  67.1 | 45.51
Output  | 0.10741    | 0.11404    | 0.12706    |   1.1 |  0.08
Modify  | 0.46044    | 0.52729    | 0.84691    |  11.3 |  0.37
Other   |            | 13.73      |            |       |  9.64

Nlocal:    41.6667 ave 54 max 31 min
Histogram: 1 5 6 11 5 5 6 6 1 2
Nghost:    2449.67 ave 2502 max 2410 min
Histogram: 4 8 5 4 7 8 6 2 2 2
Neighs:    11140.6 ave 14063 max 8191 min
Histogram: 1 6 6 4 5 8 6 4 7 1

Total # of neighbors = 534747
Ave neighs/atom = 267.373
Ave special neighs/atom = 4.8
Neighbor list builds = 9
Dangerous builds = 0
# >>>>>>>>>  Equilibration run <<<<<<<<<<<<<<<<<<<<<<<<<<<<<<<<<<

fix             NVT_equib all nvt temp ${simulationTemp} ${simulationTemp} 100
fix             NVT_equib all nvt temp 360 ${simulationTemp} 100
fix             NVT_equib all nvt temp 360 360 100

print           "Step Density Temperature Pressure KinEng PotEng TotEng" file Properties_equib_octanol_360.txt
Step Density Temperature Pressure KinEng PotEng TotEng
fix             PRINT_equib all print ${printfreq} "$(v_step) $(v_density) $(v_temp) $(v_press) $(v_pe) $(v_ke) $(v_etotal) $(v_enthalpy)" append Properties_equib_octanol_360.txt title ""
fix             PRINT_equib all print 1000 "$(v_step) $(v_density) $(v_temp) $(v_press) $(v_pe) $(v_ke) $(v_etotal) $(v_enthalpy)" append Properties_equib_octanol_360.txt title ""
# The 'print' and fix print' commands as used above will create a file named 'Properties_equib.txt' which allows you to quickly make plots to test for equilibration


run             ${NVT_equib}
run             1000000
Ewald initialization ...
  using 12-bit tables for long-range coulomb (src/kspace.cpp:332)
  G vector (1/distance) = 0.149129
  estimated absolute RMS force accuracy = 0.0367822
  estimated relative force accuracy = 0.000110768
  KSpace vectors: actual max1d max3d = 128 4 364
                  kxmax kymax kzmax  = 4 4 4
Per MPI rank memory allocation (min/avg/max) = 17.62 | 17.81 | 18.12 Mbytes
Step Volume Temp Press KinEng PotEng TotEng Enthalpy E_vdwl E_coul E_pair E_bond E_angle E_dihed E_impro E_mol E_long E_tail Lx Ly Lz Xy Xz Yz Density 
  150519    52521.615    352.54711    37538.596    2100.7011   -324.97879    1775.7223    30529.306   -1504.7994    2752.3072    -2930.371    1269.9137    578.26543    757.21311            0    2605.3923   -4177.8789    -64.18469      37.4495      37.4495      37.4495            0            0            0   0.82348675 
151000 0.8234867517405469739 360.50177569031598068 -7954.0635841325301953 -1159.3468277740898884 2148.1000447250598882 988.75321695096397434 -5103.8517302488799032
  151000    52521.615    360.50178   -7954.0636       2148.1   -1159.3468    988.75322   -5103.8517   -1708.0891    2734.4922   -3152.4808    765.58975    536.12764    691.41654            0    1993.1339   -4178.8838    -64.18469      37.4495      37.4495      37.4495            0            0            0   0.82348675 
152000 0.8234867517405469739 362.69068131921102349 -941.18586893510496338 -1083.7826783903399246 2161.142943807390111 1077.3602654170399546 356.43647336340302445
  152000    52521.615    362.69068   -941.18587    2161.1429   -1083.7827    1077.3603    356.43647   -1726.7869    2765.8037    -3139.578    771.45889    578.11667    706.21979            0    2055.7954   -4178.5949    -64.18469      37.4495      37.4495      37.4495            0            0            0   0.82348675 
153000 0.8234867517405469739 351.20854735927298407 -1067.0697325533099047 -1115.6939261915299539 2092.7250492612301969 977.03112306969899237 159.68357954103498741
  153000    52521.615    351.20855   -1067.0697     2092.725   -1115.6939    977.03112    159.68358   -1695.3747    2762.3425    -3113.244    742.83669    566.22533    688.48801            0      1997.55   -4180.2117    -64.18469      37.4495      37.4495      37.4495            0            0            0   0.82348675 
154000 0.8234867517405469739 369.98099385435301656 365.32987593105002588 -1188.0805262995500016 2204.5832865153001876 1016.5027602157399542 1296.3359028496099654
  154000    52521.615    369.98099    365.32988    2204.5833   -1188.0805    1016.5028    1296.3359   -1731.0556    2772.2082   -3139.2152    738.56277    531.47158    681.10037            0    1951.1347   -4180.3679    -64.18469      37.4495      37.4495      37.4495            0            0            0   0.82348675 
155000 0.8234867517405469739 362.50541898024198417 582.3996041883150383 -1142.1173512551499698 2160.0390323554602219 1017.9216811003100247 1464.0245657696600574
  155000    52521.615    362.50542     582.3996     2160.039   -1142.1174    1017.9217    1464.0246   -1699.2497    2719.5722   -3159.2595    763.06494    583.84428    670.23289            0    2017.1421   -4179.5819    -64.18469      37.4495      37.4495      37.4495            0            0            0   0.82348675 
156000 0.8234867517405469739 360.32825947750802698 318.25126560526200592 -1236.5932747951899273 2147.0661242019800738 910.4728494067929887 1154.2450062131899813
  156000    52521.615    360.32826    318.25127    2147.0661   -1236.5933    910.47285     1154.245   -1715.8858    2717.6595   -3178.5907    707.93771    545.47602    688.58369            0    1941.9974   -4180.3644    -64.18469      37.4495      37.4495      37.4495            0            0            0   0.82348675 
157000 0.8234867517405469739 353.28925183302800406 696.06162774259405523 -1182.2854493008198915 2105.1232166893200883 922.8377673885039485 1456.0027932754599078
  157000    52521.615    353.28925    696.06163    2105.1232   -1182.2854    922.83777    1456.0028   -1711.4658    2704.5066   -3188.2654    720.62748    581.27808    704.07439            0    2005.9799   -4181.3062    -64.18469      37.4495      37.4495      37.4495            0            0            0   0.82348675 
158000 0.8234867517405469739 359.44507243456297374 501.82830228319500065 -1181.6296828824899876 2141.8035311875100888 960.17384830502294335 1344.5612202182599049
  158000    52521.615    359.44507     501.8283    2141.8035   -1181.6297    960.17385    1344.5612   -1700.3806    2706.1242   -3174.5473    705.18216    570.30072    717.43478            0    1992.9177    -4180.291    -64.18469      37.4495      37.4495      37.4495            0            0            0   0.82348675 
159000 0.8234867517405469739 355.60865398764701695 1033.2599484703100643 -1177.4804781974301022 2118.9436974970299161 941.46321929959697172 1732.9133513241799847
  159000    52521.615    355.60865    1033.2599    2118.9437   -1177.4805    941.46322    1732.9134   -1719.4398    2735.7975   -3163.4504    714.58251    608.71709    662.67032            0    1985.9699   -4179.8082    -64.18469      37.4495      37.4495      37.4495            0            0            0   0.82348675 
160000 0.8234867517405469739 365.64562276553999709 183.87281746346201317 -1187.8078061916401111 2178.7503740089800885 990.94256781734202377 1131.7843432801701056
  160000    52521.615    365.64562    183.87282    2178.7504   -1187.8078    990.94257    1131.7843    -1735.245    2767.2237   -3147.5302    716.36045    558.48418    684.87772            0    1959.7224   -4179.5088    -64.18469      37.4495      37.4495      37.4495            0            0            0   0.82348675 
161000 0.8234867517405469739 350.62485497304299997 698.31553385514700949 -1150.2592506302501079 2089.2470368753902221 938.98778624514397961 1473.8792453428200133
  161000    52521.615    350.62485    698.31553     2089.247   -1150.2593    938.98779    1473.8792   -1693.1151    2733.9829   -3139.8194    707.61929    582.42492    699.51591            0    1989.5601   -4180.6871    -64.18469      37.4495      37.4495      37.4495            0            0            0   0.82348675 
162000 0.8234867517405469739 379.61100431609798989 1336.3375880472299286 -1166.1883004154399259 2261.9650452152800426 1095.7767447998398893 2119.3764324246199067
  162000    52521.615      379.611    1336.3376     2261.965   -1166.1883    1095.7767    2119.3764   -1715.5186    2793.9292   -3100.7163     718.1906    562.46684    653.87052            0     1934.528   -4179.1269    -64.18469      37.4495      37.4495      37.4495            0            0            0   0.82348675 
163000 0.8234867517405469739 357.60026522465000198 -212.600575478787988 -1092.9240070507999008 2130.8109904641401045 1037.8869834133399763 875.04049567296203804
  163000    52521.615    357.60027   -212.60058     2130.811    -1092.924     1037.887     875.0405   -1737.1824    2799.2414   -3116.0985    732.68405    579.16304     711.3274            0    2023.1745   -4178.1575    -64.18469      37.4495      37.4495      37.4495            0            0            0   0.82348675 
164000 0.8234867517405469739 361.10047451089599235 855.0395095402179777 -1102.5198491150199516 2151.6674750402098653 1049.1476259251899137 1704.0855568047300039
  164000    52521.615    361.10047    855.03951    2151.6675   -1102.5198    1049.1476    1704.0856   -1729.8294    2764.3149   -3144.9125    744.72615    587.52923    710.13722            0    2042.3926   -4179.3979    -64.18469      37.4495      37.4495      37.4495            0            0            0   0.82348675 
165000 0.8234867517405469739 359.22065140516400561 445.85785292480500175 -1141.6517260533400986 2140.466287224250209 998.81456117090203861 1340.3300308104201122
  165000    52521.615    359.22065    445.85785    2140.4663   -1141.6517    998.81456      1340.33   -1733.3413    2745.1687   -3169.3818    739.29402    571.20205    717.23402            0    2027.7301   -4181.2092    -64.18469      37.4495      37.4495      37.4495            0            0            0   0.82348675 
166000 0.8234867517405469739 355.58425425252102059 466.6667164202880258 -1222.2155609905300935 2118.7983082766400003 896.58274728611297633 1254.037262840610083
  166000    52521.615    355.58425    466.66672    2118.7983   -1222.2156    896.58275    1254.0373    -1752.544    2782.3987   -3150.1945     701.4426    567.80423    658.73215            0     1927.979   -4180.0493    -64.18469      37.4495      37.4495      37.4495            0            0            0   0.82348675 
167000 0.8234867517405469739 341.67669686925700034 1559.3969738431098904 -1059.1064549643999726 2035.9281904254899018 976.82173546108901974 2171.279086347500197
  167000    52521.615     341.6767     1559.397    2035.9282   -1059.1065    976.82174    2171.2791   -1737.7288    2839.8576   -3077.2867    724.32125    589.63883    704.22012            0    2018.1802   -4179.4155    -64.18469      37.4495      37.4495      37.4495            0            0            0   0.82348675 
168000 0.8234867517405469739 359.4187348394020205 795.72369562614494498 -1084.5260854875900804 2141.6465949581797759 1057.1205094705899228 1666.6240762068800905
  168000    52521.615    359.41873     795.7237    2141.6466   -1084.5261    1057.1205    1666.6241   -1718.2806    2805.5002   -3092.5285    730.30334    584.28766    693.41143            0    2008.0024   -4179.7481    -64.18469      37.4495      37.4495      37.4495            0            0            0   0.82348675 
169000 0.8234867517405469739 373.70186181203297338 1248.8880625747599424 -1071.154970472739933 2226.7545965206500114 1155.5996260479100783 2112.215261321539856
  169000    52521.615    373.70186    1248.8881    2226.7546    -1071.155    1155.5996    2112.2153   -1714.1214     2805.966   -3087.8611    708.21635    593.38203    715.10778            0    2016.7062   -4179.7057    -64.18469      37.4495      37.4495      37.4495            0            0            0   0.82348675 
170000 0.8234867517405469739 350.93936293586500597 311.90477584829500302 -1122.0261790247900535 2091.1210763796698302 969.0948973548770482 1208.0058087762399737
  170000    52521.615    350.93936    311.90478    2091.1211   -1122.0262     969.0949    1208.0058   -1723.5832    2781.3575   -3121.8066    740.37775    587.81065    671.59197            0    1999.7804   -4179.5809    -64.18469      37.4495      37.4495      37.4495            0            0            0   0.82348675 
171000 0.8234867517405469739 355.3441957411919816 -967.91978973966195099 -1133.779737673929958 2117.3678861991497797 983.58814852522004912 242.18687141892999648
  171000    52521.615     355.3442   -967.91979    2117.3679   -1133.7797    983.58815    242.18687   -1703.1842    2761.1705   -3123.2016    715.26191    584.43715     689.7228            0    1989.4219   -4181.1879    -64.18469      37.4495      37.4495      37.4495            0            0            0   0.82348675 
172000 0.8234867517405469739 364.27066669089697371 301.41409725611902104 -1200.9715773073799028 2170.5575067206600579 969.5859294132769719 1200.4612550470599217
  172000    52521.615    364.27067     301.4141    2170.5575   -1200.9716    969.58593    1200.4613   -1716.2663    2712.7537   -3183.2652    677.82855    576.08978    728.37526            0    1982.2936   -4179.7525    -64.18469      37.4495      37.4495      37.4495            0            0            0   0.82348675 
173000 0.8234867517405469739 358.05250402011398592 -320.65431206802298902 -1148.8913391384498937 2133.5057183192297998 984.61437918078797793 739.00155155091397319
  173000    52521.615     358.0525   -320.65431    2133.5057   -1148.8913    984.61438    739.00155   -1739.2016    2758.8773   -3159.5677    715.20674    564.79098    730.67861            0    2010.6763   -4179.2434    -64.18469      37.4495      37.4495      37.4495            0            0            0   0.82348675 
174000 0.8234867517405469739 362.7292575511920063 -1772.3694510018599431 -1247.3067606695799441 2161.3728056589297921 914.06604498934905223 -443.52266061029899902
  174000    52521.615    362.72926   -1772.3695    2161.3728   -1247.3068    914.06604   -443.52266   -1706.5006    2697.2165   -3186.8325     711.8753    542.00165    685.64878            0    1939.5257   -4177.5484    -64.18469      37.4495      37.4495      37.4495            0            0            0   0.82348675 
175000 0.8234867517405469739 355.99552155251802787 186.02210609586200007 -1204.3323634493799545 2121.248901769080021 916.91653831970097599 1059.4046127360400078
  175000    52521.615    355.99552    186.02211    2121.2489   -1204.3324    916.91654    1059.4046   -1689.9254    2672.4197   -3195.9325    727.24968     568.4963    695.85413            0    1991.6001   -4178.4268    -64.18469      37.4495      37.4495      37.4495            0            0            0   0.82348675 
176000 0.8234867517405469739 361.28461339050602419 554.24281715252197955 -1152.1753558757200153 2152.7646922030598944 1000.5893363273399927 1425.124857575850001
  176000    52521.615    361.28461    554.24282    2152.7647   -1152.1754    1000.5893    1425.1249   -1732.9088    2763.9735   -3147.7778    709.89137    596.20347    689.50763            0    1995.6025   -4178.8426    -64.18469      37.4495      37.4495      37.4495            0            0            0   0.82348675 
177000 0.8234867517405469739 355.45406913587299869 -435.02953582956200762 -1261.3568793940798969 2118.0225821256199197 856.66570273153104154 523.44444115391195282
  177000    52521.615    355.45407   -435.02954    2118.0226   -1261.3569     856.6657    523.44444   -1732.4565    2750.1681    -3162.141    658.20677    581.96809    660.60922            0    1900.7841   -4179.8526    -64.18469      37.4495      37.4495      37.4495            0            0            0   0.82348675 
178000 0.8234867517405469739 358.73600338266902554 831.62278605958999833 -1172.5703517283500332 2137.5784444756100129 965.00809274725804698 1602.0094250798699704
  178000    52521.615      358.736    831.62279    2137.5784   -1172.5704    965.00809    1602.0094   -1768.8261    2785.6241   -3162.8781    707.83464    570.65536    711.81776            0    1990.3078   -4179.6761    -64.18469      37.4495      37.4495      37.4495            0            0            0   0.82348675 
179000 0.8234867517405469739 375.39682691761100841 -241.32853412892100664 -1160.0856689824900059 2236.8542821938299312 1076.7686132113399253 891.91725951240005088
  179000    52521.615    375.39683   -241.32853    2236.8543   -1160.0857    1076.7686    891.91726   -1747.3588    2756.4873   -3170.2676    713.14556    591.58765    705.44871            0    2010.1819   -4179.3961    -64.18469      37.4495      37.4495      37.4495            0            0            0   0.82348675 
180000 0.8234867517405469739 362.43983585311798379 -44.352574331816697395 -1214.1179705166500753 2159.6482461574200897 945.53027564076899125 911.55736218127094617
  180000    52521.615    362.43984   -44.352574    2159.6482    -1214.118    945.53028    911.55736   -1747.0115    2775.4866   -3149.8774    665.41362    562.76515    707.58067            0    1935.7594   -4178.3525    -64.18469      37.4495      37.4495      37.4495            0            0            0   0.82348675 
181000 0.8234867517405469739 361.5293006105679865 1858.3472724268399361 -1193.6600019040299685 2154.2226950862700505 960.56269318223894516 2384.0081642732197906
  181000    52521.615     361.5293    1858.3473    2154.2227     -1193.66    960.56269    2384.0082   -1734.0007    2720.8449   -3192.9497    679.32012    623.57908    696.39051            0    1999.2897   -4179.7938    -64.18469      37.4495      37.4495      37.4495            0            0            0   0.82348675 
182000 0.8234867517405469739 350.41135307534602816 -164.05053113712600066 -1138.894217894780013 2087.9748560793000252 949.08063818452001215 823.42221629426796881
  182000    52521.615    350.41135   -164.05053    2087.9749   -1138.8942    949.08064    823.42222   -1704.0353    2715.2324   -3170.5451    717.48694     587.4623    726.70163            0    2031.6509   -4181.7422    -64.18469      37.4495      37.4495      37.4495            0            0            0   0.82348675 
183000 0.8234867517405469739 358.69083013267101023 728.5460016171469988 -1159.7126549013300973 2137.3092733733201385 977.59661847198799478 1535.6438262627400491
  183000    52521.615    358.69083      728.546    2137.3093   -1159.7127    977.59662    1535.6438   -1713.5364    2734.2887   -3161.1521    685.84843    606.75617    708.83485            0    2001.4395   -4181.9044    -64.18469      37.4495      37.4495      37.4495            0            0            0   0.82348675 
184000 0.8234867517405469739 356.97424050504400839 1153.5404768649200378 -1166.590500076860053 2127.0807349734100171 960.49023489655201047 1844.0721099726699777
  184000    52521.615    356.97424    1153.5405    2127.0807   -1166.5905    960.49023    1844.0721   -1727.1683     2706.367   -3201.9115    717.93456    580.56355    736.82288            0     2035.321   -4181.1101    -64.18469      37.4495      37.4495      37.4495            0            0            0   0.82348675 
185000 0.8234867517405469739 356.13799902571400935 1094.4022137107099297 -1225.9066175758500776 2122.097873638800138 896.19125606294403497 1734.4747662402799051
  185000    52521.615      356.138    1094.4022    2122.0979   -1225.9066    896.19126    1734.4748   -1732.4324    2747.7054   -3166.1813    675.11723    552.50849    712.64893            0    1940.2746   -4181.4543    -64.18469      37.4495      37.4495      37.4495            0            0            0   0.82348675 
186000 0.8234867517405469739 362.00196862762902583 1627.5074085410899443 -1146.5422633966400099 2157.0391533038400667 1010.4968899072000568 2257.125054743939927
  186000    52521.615    362.00197    1627.5074    2157.0392   -1146.5423    1010.4969    2257.1251   -1670.9115    2694.3516   -3155.7708    689.51306    600.75504     718.9604            0    2009.2285   -4179.2109    -64.18469      37.4495      37.4495      37.4495            0            0            0   0.82348675 
187000 0.8234867517405469739 347.75410122281499525 984.5367576173720181 -1150.7231711116100996 2072.1412507875102165 921.41807967590796125 1675.547520145280032
[...]
4123000 0.8234867517405469739 372.90084256787099548 550.79328556265897987 -1189.6823537961399779 2221.9816117803698035 1032.2992579842400573 1454.1925281358498978
 4123000    52521.615    372.90084    550.79329    2221.9816   -1189.6824    1032.2993    1454.1925    -1727.768    2745.2976   -3161.4797    664.36283    564.37097    743.06349            0    1971.7973   -4179.0092    -64.18469      37.4495      37.4495      37.4495            0            0            0   0.82348675 
4124000 0.8234867517405469739 353.90024599081499446 451.99432546791598497 -1161.0228301917500175 2108.7639104838399362 947.7410802920929882 1293.9569276164299936
4124000 0.8234867517405469739 353.90024599081499446 451.99432546791598497 -1161.0228301917500175 2108.7639104838399362 947.7410802920929882 1293.9569276164299936
 4124000    52521.615    353.90025    451.99433    2108.7639   -1161.0228    947.74108    1293.9569   -1729.3149    2779.1135    -3131.065     705.2167    562.96336    701.86209            0    1970.0421   -4180.8636    -64.18469      37.4495      37.4495      37.4495            0            0            0   0.82348675 
4125000 0.8234867517405469739 346.4099103548300036 -707.98585092912196615 -1167.4791655216899926 2064.1317022683501818 896.65253674665598282 354.35386735668998881
4125000 0.8234867517405469739 346.4099103548300036 -707.98585092912196615 -1167.4791655216899926 2064.1317022683501818 896.65253674665598282 354.35386735668998881
 4125000    52521.615    346.40991   -707.98585    2064.1317   -1167.4792    896.65254    354.35387    -1736.677     2763.566   -3150.0374      694.315    554.28638    733.95688            0    1982.5583   -4176.9264    -64.18469      37.4495      37.4495      37.4495            0            0            0   0.82348675 
4126000 0.8234867517405469739 356.25162761080002838 731.67796747505497024 -1151.8624360522298957 2122.7749453903497852 970.9125093381210263 1531.3587211698300052
4126000 0.8234867517405469739 356.25162761080002838 731.67796747505497024 -1151.8624360522298957 2122.7749453903497852 970.9125093381210263 1531.3587211698300052
 4126000    52521.615    356.25163    731.67797    2122.7749   -1151.8624    970.91251    1531.3587   -1721.2775    2741.8673    -3158.565     702.5311    583.47418    720.69724            0    2006.7025   -4179.1548    -64.18469      37.4495      37.4495      37.4495            0            0            0   0.82348675 
4127000 0.8234867517405469739 363.74079560374798348 1238.0209614796599453 -1163.8378343548399698 2167.4001960421701369 1003.5623616873300534 1951.8540813682100179
4127000 0.8234867517405469739 363.74079560374798348 1238.0209614796599453 -1163.8378343548399698 2167.4001960421701369 1003.5623616873300534 1951.8540813682100179
 4127000    52521.615     363.7408     1238.021    2167.4002   -1163.8378    1003.5624    1951.8541   -1727.3598    2778.2423   -3127.5432    707.44095    588.47364    667.79076            0    1963.7053   -4178.4257    -64.18469      37.4495      37.4495      37.4495            0            0            0   0.82348675 
4128000 0.8234867517405469739 364.94125218326701088 114.15739542081500701 -1218.0196850131098927 2174.5532837827599906 956.53359876964896102 1043.9751818980200824
4128000 0.8234867517405469739 364.94125218326701088 114.15739542081500701 -1218.0196850131098927 2174.5532837827599906 956.53359876964896102 1043.9751818980200824
 4128000    52521.615    364.94125     114.1574    2174.5533   -1218.0197     956.5336    1043.9752   -1750.6212    2790.6479   -3139.2146     690.9528    570.59541    659.64668            0    1921.1949   -4179.2414    -64.18469      37.4495      37.4495      37.4495            0            0            0   0.82348675 
4129000 0.8234867517405469739 365.98338072729501391 985.63800510725297954 -1081.2199230196099506 2180.7629518703902249 1099.5430288507800469 1854.5159961330800797
4129000 0.8234867517405469739 365.98338072729501391 985.63800510725297954 -1081.2199230196099506 2180.7629518703902249 1099.5430288507800469 1854.5159961330800797
 4129000    52521.615    365.98338    985.63801     2180.763   -1081.2199     1099.543     1854.516   -1754.8017    2818.4909   -3116.1267    728.59132     567.5387    738.77671            0    2034.9067   -4179.8158    -64.18469      37.4495      37.4495      37.4495            0            0            0   0.82348675 
4130000 0.8234867517405469739 351.97556024967599342 1064.7893749208799363 -1127.1272424696799135 2097.2954024058799405 970.16815993620105019 1785.7690090808200694
4130000 0.8234867517405469739 351.97556024967599342 1064.7893749208799363 -1127.1272424696799135 2097.2954024058799405 970.16815993620105019 1785.7690090808200694
 4130000    52521.615    351.97556    1064.7894    2097.2954   -1127.1272    970.16816     1785.769   -1743.1914    2792.4831   -3131.1012    697.05867    552.29181    754.62347            0    2003.9739   -4180.3929    -64.18469      37.4495      37.4495      37.4495            0            0            0   0.82348675 
4131000 0.8234867517405469739 363.55828966754398834 497.483643179219996 -1192.6296955594000337 2166.3127090000498356 973.68301344064900604 1354.7424899616999028
4131000 0.8234867517405469739 363.55828966754398834 497.483643179219996 -1192.6296955594000337 2166.3127090000498356 973.68301344064900604 1354.7424899616999028
 4131000    52521.615    363.55829    497.48364    2166.3127   -1192.6297    973.68301    1354.7425   -1713.7064    2765.0394   -3129.4634    689.78498    565.26698    681.78173            0    1936.8337   -4180.7964    -64.18469      37.4495      37.4495      37.4495            0            0            0   0.82348675 
4132000 0.8234867517405469739 354.56731704855599219 510.1755367561560206 -1118.1452288713298913 2112.7387462976798815 994.59351742634703442 1385.3746529181000824
4132000 0.8234867517405469739 354.56731704855599219 510.1755367561560206 -1118.1452288713298913 2112.7387462976798815 994.59351742634703442 1385.3746529181000824
 4132000    52521.615    354.56732    510.17554    2112.7387   -1118.1452    994.59352    1385.3747   -1719.1415    2797.1393   -3099.4853    721.46141    587.31212    672.56649            0      1981.34    -4177.483    -64.18469      37.4495      37.4495      37.4495            0            0            0   0.82348675 
4133000 0.8234867517405469739 363.42371775520797428 -108.85439379383799974 -1199.126642853319936 2165.5108435158799693 966.3842006625590102 883.00457826730996658
4133000 0.8234867517405469739 363.42371775520797428 -108.85439379383799974 -1199.126642853319936 2165.5108435158799693 966.3842006625590102 883.00457826730996658
 4133000    52521.615    363.42372   -108.85439    2165.5108   -1199.1266     966.3842    883.00458   -1694.2173    2704.9861   -3167.7184    695.31254    573.31535    699.96383            0    1968.5917   -4178.4872    -64.18469      37.4495      37.4495      37.4495            0            0            0   0.82348675 
4134000 0.8234867517405469739 362.59185264780001035 582.38561616288097866 -1281.3445373164800003 2160.5540594029398562 879.2095220864609928 1325.3016922936899391
4134000 0.8234867517405469739 362.59185264780001035 582.38561616288097866 -1281.3445373164800003 2160.5540594029398562 879.2095220864609928 1325.3016922936899391
 4134000    52521.615    362.59185    582.38562    2160.5541   -1281.3445    879.20952    1325.3017   -1695.4328    2707.3578   -3169.0769    660.67692    560.07044    666.98497            0    1887.7323   -4181.0019    -64.18469      37.4495      37.4495      37.4495            0            0            0   0.82348675 
4135000 0.8234867517405469739 360.84023670413898799 878.53329196291997505 -1132.5415863673999866 2150.1168118201399011 1017.5752254527300238 1690.5087800160699771
4135000 0.8234867517405469739 360.84023670413898799 878.53329196291997505 -1132.5415863673999866 2150.1168118201399011 1017.5752254527300238 1690.5087800160699771
 4135000    52521.615    360.84024    878.53329    2150.1168   -1132.5416    1017.5752    1690.5088    -1721.902    2743.8441   -3159.0349    723.98153    590.38435    712.12744            0    2026.4933    -4180.977    -64.18469      37.4495      37.4495      37.4495            0            0            0   0.82348675 
4136000 0.8234867517405469739 347.06706849050499386 -419.03739906247199087 -1181.8294474722999894 2068.0474705552901469 886.21802308299402284 565.24632055816402953
4136000 0.8234867517405469739 347.06706849050499386 -419.03739906247199087 -1181.8294474722999894 2068.0474705552901469 886.21802308299402284 565.24632055816402953
 4136000    52521.615    347.06707    -419.0374    2068.0475   -1181.8294    886.21802    565.24632   -1719.7908    2749.7005   -3148.2439    677.08288    577.70209    711.62944            0    1966.4144   -4178.1535    -64.18469      37.4495      37.4495      37.4495            0            0            0   0.82348675 
4137000 0.8234867517405469739 363.88207391860902362 235.93623600960501108 -1198.6930782388399166 2168.2420225599198602 969.54894432107596458 1150.2699385061600879
4137000 0.8234867517405469739 363.88207391860902362 235.93623600960501108 -1198.6930782388399166 2168.2420225599198602 969.54894432107596458 1150.2699385061600879
 4137000    52521.615    363.88207    235.93624     2168.242   -1198.6931    969.54894    1150.2699   -1715.7189    2735.0066   -3160.5944    703.39339    564.28177    694.22621            0    1961.9014   -4179.8822    -64.18469      37.4495      37.4495      37.4495            0            0            0   0.82348675 
4138000 0.8234867517405469739 355.74782657667600461 -1218.6063666131499303 -1114.6122830184999657 2119.7729767541000001 1005.1606937356000344 71.74004661787499515
4138000 0.8234867517405469739 355.74782657667600461 -1218.6063666131499303 -1114.6122830184999657 2119.7729767541000001 1005.1606937356000344 71.74004661787499515
 4138000    52521.615    355.74783   -1218.6064     2119.773   -1114.6123    1005.1607    71.740047   -1726.1231     2771.708   -3134.5592    698.17576     592.5367    729.23445            0    2019.9469   -4180.1441    -64.18469      37.4495      37.4495      37.4495            0            0            0   0.82348675 
4139000 0.8234867517405469739 370.4857332354139885 1497.812657003159984 -1086.2141535181899599 2207.5908464224698946 1121.3766929042799347 2268.6620656589698228
4139000 0.8234867517405469739 370.4857332354139885 1497.812657003159984 -1086.2141535181899599 2207.5908464224698946 1121.3766929042799347 2268.6620656589698228
 4139000    52521.615    370.48573    1497.8127    2207.5908   -1086.2142    1121.3767    2268.6621   -1666.9758    2748.2043   -3099.7767    720.15806    579.05269    714.35176            0    2013.5625   -4181.0052    -64.18469      37.4495      37.4495      37.4495            0            0            0   0.82348675 
4140000 0.8234867517405469739 358.4573320971859971 1012.4627910853699859 -1131.6003215281000394 2135.9179428049501439 1004.3176212768499909 1779.8376739613700011
4140000 0.8234867517405469739 358.4573320971859971 1012.4627910853699859 -1131.6003215281000394 2135.9179428049501439 1004.3176212768499909 1779.8376739613700011
 4140000    52521.615    358.45733    1012.4628    2135.9179   -1131.6003    1004.3176    1779.8377     -1697.97     2730.435   -3147.8293    727.21453    554.29197    734.72243            0    2016.2289   -4180.2942    -64.18469      37.4495      37.4495      37.4495            0            0            0   0.82348675 
4141000 0.8234867517405469739 356.07262842652698964 353.74951500356797851 -1160.7865364395399865 2121.7083538180700089 960.921817378531955 1231.8847060182199584
4141000 0.8234867517405469739 356.07262842652698964 353.74951500356797851 -1160.7865364395399865 2121.7083538180700089 960.921817378531955 1231.8847060182199584
 4141000    52521.615    356.07263    353.74952    2121.7084   -1160.7865    960.92182    1231.8847   -1744.0077    2759.0486   -3163.0469    704.72796    561.71083    735.82157            0    2002.2604   -4178.0877    -64.18469      37.4495      37.4495      37.4495            0            0            0   0.82348675 
4142000 0.8234867517405469739 363.32190697835500259 -295.83420033265002758 -1122.8874904973499724 2164.9041898207801751 1042.0166993234299753 815.41542898745194634
4142000 0.8234867517405469739 363.32190697835500259 -295.83420033265002758 -1122.8874904973499724 2164.9041898207801751 1042.0166993234299753 815.41542898745194634
 4142000    52521.615    363.32191    -295.8342    2164.9042   -1122.8875    1042.0167    815.41543   -1689.8627    2754.5703   -3116.0588    727.06643    579.05359    687.05126            0    1993.1713   -4180.7663    -64.18469      37.4495      37.4495      37.4495            0            0            0   0.82348675 
4143000 0.8234867517405469739 354.42555567456702192 130.90153115849500409 -1089.0550301232699439 2111.894041404840209 1022.8390112815700377 1123.1061650321701109
4143000 0.8234867517405469739 354.42555567456702192 130.90153115849500409 -1089.0550301232699439 2111.894041404840209 1022.8390112815700377 1123.1061650321701109
 4143000    52521.615    354.42556    130.90153     2111.894    -1089.055     1022.839    1123.1062    -1709.356    2744.0955   -3144.4694    733.50349    576.50266    745.40822            0    2055.4144   -4179.2089    -64.18469      37.4495      37.4495      37.4495            0            0            0   0.82348675 
4144000 0.8234867517405469739 363.96569176252398847 2596.0203019245200267 -1274.6916910611200819 2168.7402711300001101 894.04858006888298405 2882.5323239113099589
4144000 0.8234867517405469739 363.96569176252398847 2596.0203019245200267 -1274.6916910611200819 2168.7402711300001101 894.04858006888298405 2882.5323239113099589
 4144000    52521.615    363.96569    2596.0203    2168.7403   -1274.6917    894.04858    2882.5323   -1717.5879    2761.6024   -3135.4989    653.08178     545.5243    662.20116            0    1860.8072   -4179.5134    -64.18469      37.4495      37.4495      37.4495            0            0            0   0.82348675 
4145000 0.8234867517405469739 360.82497859384301364 233.52516626760100849 -1167.6066595707500255 2150.0258942446398578 982.41923467389096913 1161.2934124131700173
4145000 0.8234867517405469739 360.82497859384301364 233.52516626760100849 -1167.6066595707500255 2150.0258942446398578 982.41923467389096913 1161.2934124131700173
 4145000    52521.615    360.82498    233.52517    2150.0259   -1167.6067    982.41923    1161.2934   -1713.7791    2720.9539   -3173.6054    706.47307    586.79397    712.73166            0    2005.9987   -4180.7802    -64.18469      37.4495      37.4495      37.4495            0            0            0   0.82348675 
4146000 0.8234867517405469739 365.3414378775440241 1196.5441658871200161 -1155.2389532713600602 2176.93784598395996 1021.6988927126000135 1938.2204703336099101
4146000 0.8234867517405469739 365.3414378775440241 1196.5441658871200161 -1155.2389532713600602 2176.93784598395996 1021.6988927126000135 1938.2204703336099101
 4146000    52521.615    365.34144    1196.5442    2176.9378    -1155.239    1021.6989    1938.2205   -1710.9287    2735.6076   -3156.7576    747.19044    574.02149    680.30675            0    2001.5187   -4181.4365    -64.18469      37.4495      37.4495      37.4495            0            0            0   0.82348675 
4147000 0.8234867517405469739 356.82738201088500318 547.66907193899396589 -1113.8124061332600832 2126.2056581800597996 1012.3932520467999439 1431.8934561664000285
4147000 0.8234867517405469739 356.82738201088500318 547.66907193899396589 -1113.8124061332600832 2126.2056581800597996 1012.3932520467999439 1431.8934561664000285
 4147000    52521.615    356.82738    547.66907    2126.2057   -1113.8124    1012.3933    1431.8935   -1662.1451    2720.2066   -3121.7951    686.88225    598.37619    722.72421            0    2007.9827   -4179.8565    -64.18469      37.4495      37.4495      37.4495            0            0            0   0.82348675 
4148000 0.8234867517405469739 364.51718826252999861 -1427.8300306480000472 -1127.784130384799937 2172.0264398432100279 1044.2423094584100909 -49.438199437745900866
4148000 0.8234867517405469739 364.51718826252999861 -1427.8300306480000472 -1127.784130384799937 2172.0264398432100279 1044.2423094584100909 -49.438199437745900866
 4148000    52521.615    364.51719     -1427.83    2172.0264   -1127.7841    1044.2423   -49.438199   -1730.4663    2753.7235   -3155.9249    717.70434    566.83207    743.60436            0    2028.1408    -4179.182    -64.18469      37.4495      37.4495      37.4495            0            0            0   0.82348675 
4149000 0.8234867517405469739 366.61558676818697222 723.25088945489198977 -1256.7958310001299651 2184.5300396249899677 927.73420862486398164 1481.7254988064000827
4149000 0.8234867517405469739 366.61558676818697222 723.25088945489198977 -1256.7958310001299651 2184.5300396249899677 927.73420862486398164 1481.7254988064000827
 4149000    52521.615    366.61559    723.25089      2184.53   -1256.7958    927.73421    1481.7255   -1732.7939    2749.2314   -3163.4936    659.22007    563.67084    683.80691            0    1906.6978   -4179.9312    -64.18469      37.4495      37.4495      37.4495            0            0            0   0.82348675 
4150000 0.8234867517405469739 365.92555670348298236 1860.8206020418399476 -1122.8364120704200104 2180.4183993701999498 1057.5819872997899438 2482.9219642730699888
4150000 0.8234867517405469739 365.92555670348298236 1860.8206020418399476 -1122.8364120704200104 2180.4183993701999498 1057.5819872997899438 2482.9219642730699888
 4150000    52521.615    365.92556    1860.8206    2180.4184   -1122.8364     1057.582     2482.922    -1726.474    2781.9093   -3122.7664    690.08412     591.5449      718.301            0      1999.93   -4178.2018    -64.18469      37.4495      37.4495      37.4495            0            0            0   0.82348675 
 4150519    52521.615    377.78099    1481.0068    2251.0606   -1274.3698    976.69083    2111.1033    -1726.859    2703.7143   -3202.2032    683.39775    569.66555    674.77012            0    1927.8334   -4179.0585    -64.18469      37.4495      37.4495      37.4495            0            0            0   0.82348675 
Loop time of 5024.54 on 48 procs for 3000000 steps with 2000 atoms

Performance: 51.587 ns/day, 0.465 hours/ns, 597.069 timesteps/s
44.5% CPU use with 48 MPI tasks x 1 OpenMP threads

MPI task timing breakdown:
Section |  min time  |  avg time  |  max time  |%varavg| %total
---------------------------------------------------------------
Pair    | 703.45     | 777.92     | 855.71     | 130.6 | 15.48
Bond    | 30.995     | 33.03      | 35.658     |  18.4 |  0.66
Kspace  | 876.19     | 1096.6     | 1239.2     | 252.2 | 21.83
Neigh   | 215.06     | 247.72     | 274.6      | 127.4 |  4.93
Comm    | 1896.3     | 2159.7     | 2536.9     | 342.6 | 42.98
Output  | 12.033     | 12.064     | 12.071     |   0.2 |  0.24
Modify  | 184.84     | 409.53     | 565.7      | 483.6 |  8.15
Other   |            | 287.9      |            |       |  5.73

Nlocal:    41.6667 ave 55 max 27 min
Histogram: 2 3 3 6 2 13 9 6 2 2
Nghost:    2466.62 ave 2500 max 2431 min
Histogram: 2 2 6 7 8 7 5 3 4 4
Neighs:    11180.8 ave 15357 max 7408 min
Histogram: 4 1 4 7 10 9 7 3 2 1

Total # of neighbors = 536679
Ave neighs/atom = 268.339
Ave special neighs/atom = 4.8
Neighbor list builds = 294260
Dangerous builds = 0

write_data      restart.${NAME}.final.data
write_data      restart.octanol_ua_360.final.data
Ewald initialization ...
  using 12-bit tables for long-range coulomb (src/kspace.cpp:332)
  G vector (1/distance) = 0.149129
  estimated absolute RMS force accuracy = 0.0367822
  estimated relative force accuracy = 0.000110768
  KSpace vectors: actual max1d max3d = 128 4 364
                  kxmax kymax kzmax  = 4 4 4
Total wall time: 1:55:46
