LAMMPS data file via write_data, version 3 Mar 2020, timestep = 4150519

2000 atoms
5 atom types
1800 bonds
5 bond types
1600 angles
5 angle types
1400 dihedrals
5 dihedral types

0.0000000000000000e+00 3.7449500000000000e+01 xlo xhi
0.0000000000000000e+00 3.7449500000000000e+01 ylo yhi
0.0000000000000000e+00 3.7449500000000000e+01 zlo zhi

Masses

1 14.027
2 14.027
3 15.035
4 1.00795
5 15.9994

Pair Coeffs # lj/cut/coul/long

1 0.09141 3.95
2 0.09141 3.95
3 0.19475 3.75
4 0 10
5 0.18481 3.02

Bond Coeffs # harmonic

1 600.402 1.54
2 600.402 1.54
3 600.402 1.54
4 600.402 1.43
5 600.402 0.945

Angle Coeffs # harmonic

1 62.1 114
2 62.1 114
3 62.1 114
4 50.078 109.47
5 55.046 108.5

Dihedral Coeffs # opls

1 1.41103 -0.27102 3.14503 -0
2 1.41103 -0.27102 3.14503 -0
3 1.41103 -0.27102 3.14503 -0
4 0.70196 -0.212 3.06001 -0
5 0.83391 -0.11593 0.74691 -0

Atoms # full

1536 1 2 0.0000000000000000e+00 9.4957871429968055e+00 8.2835040222541370e+00 8.5416349063226971e+00 0 0 1
1146 1 2 0.0000000000000000e+00 1.1964426231112135e+01 7.2790416086952652e+00 2.1352487091728869e+00 0 1 1
1622 1 2 0.0000000000000000e+00 2.8471379586112859e+00 6.9814914873963234e+00 3.9897706059400528e+00 0 1 0
1451 1 3 0.0000000000000000e+00 1.0303310898502819e+01 8.9093338881115347e-01 7.7992627485916994e+00 0 1 0
1621 1 3 0.0000000000000000e+00 4.2859504082541955e+00 6.5130034536443482e+00 3.7264669930434673e+00 0 1 0
1535 1 2 0.0000000000000000e+00 9.3941969202135436e+00 8.5557416895450480e+00 7.0400497274207829e+00 0 0 1
1763 1 2 0.0000000000000000e+00 1.0050152355710001e+01 2.0598042424663645e+00 3.1112347770313842e+00 0 0 2
1623 1 2 0.0000000000000000e+00 2.0135874700190044e+00 6.5719344861796660e+00 2.7424998181400375e+00 0 1 0
1455 1 2 0.0000000000000000e+00 5.3802206348990973e+00 7.6103491576339100e-01 6.3712712766347419e+00 0 1 0
1534 1 2 0.0000000000000000e+00 7.9289059912647044e+00 8.7756845759906259e+00 6.5857295901612956e+00 0 0 1
1765 1 2 0.0000000000000000e+00 7.8472100176699522e+00 7.8964910858223047e-01 2.6658696498401389e+00 0 0 2
1976 1 2 0.0000000000000000e+00 2.1288990840794286e-01 8.8244344991030896e+00 6.8707179256684690e+00 1 0 1
921 1 3 0.0000000000000000e+00 2.9349376477012823e-01 2.4167956709466272e+00 1.1716204947396314e+00 1 0 0
1453 1 2 0.0000000000000000e+00 7.7423181124732379e+00 8.8687458064249003e-01 7.3143456098300970e+00 0 1 0
1133 1 2 0.0000000000000000e+00 5.1591042549252619e-01 3.2248487716255410e+00 5.5236704863556696e+00 1 1 1
1764 1 2 0.0000000000000000e+00 8.7940986667341505e+00 1.9017619402497894e+00 2.2694248710335905e+00 0 0 2
1624 1 2 0.0000000000000000e+00 5.5340843292888608e-01 7.0325549849025109e+00 2.8847273335210750e+00 0 1 0
1145 1 2 0.0000000000000000e+00 1.0584610736603320e+01 6.8027329426500671e+00 2.7691735809967342e+00 0 1 1
922 1 2 0.0000000000000000e+00 1.7724288528446241e+00 2.2701384474238582e+00 9.5632904019036058e-01 1 0 0
1452 1 2 0.0000000000000000e+00 9.0269543731060633e+00 7.7141716830154305e-02 7.6743336531670812e+00 0 1 0
1141 1 3 0.0000000000000000e+00 7.6172063689200193e+00 4.6253097340556124e+00 6.3148537093412438e+00 0 1 1
1132 1 2 0.0000000000000000e+00 1.2432163500538780e+00 4.4598376135790732e+00 6.0857083349942984e+00 1 1 1
1537 1 2 0.0000000000000000e+00 1.1007565175249113e+01 8.0800227236337374e+00 8.8847021581520949e+00 0 0 1
1144 1 2 0.0000000000000000e+00 1.0532662016602711e+01 6.2709636851581161e+00 4.2583355382431973e+00 0 1 1
1142 1 2 0.0000000000000000e+00 9.0637145997869215e+00 4.9877794824087704e+00 6.0019808796974603e+00 0 1 1
1143 1 2 0.0000000000000000e+00 9.1691481536275425e+00 5.7027577696115266e+00 4.6381790950978328e+00 0 1 1
1131 1 3 0.0000000000000000e+00 2.7326580117918167e+00 4.2774944011559812e+00 6.4171695155814472e+00 1 1 1
1533 1 2 0.0000000000000000e+00 7.6702362951634573e+00 9.0869314708667464e+00 5.1088198150842929e+00 0 0 1
1762 1 2 0.0000000000000000e+00 1.1044796926287560e+01 2.9356290575643245e+00 2.3630701227405218e+00 0 0 2
1457 1 2 0.0000000000000000e+00 3.1168987383659750e+00 3.2799772270910282e-01 5.3678801889896972e+00 0 1 0
1766 1 2 0.0000000000000000e+00 6.6005806298458047e+00 7.0366962539874933e-01 1.8315648304289360e+00 0 0 2
1147 1 2 0.0000000000000000e+00 1.2037135717998792e+01 7.3945825017762088e+00 5.8138099093987439e-01 0 1 1
1454 1 2 0.0000000000000000e+00 6.6512958816923797e+00 7.1463102835467342e-03 6.7079584202926110e+00 0 1 0
1977 1 2 0.0000000000000000e+00 1.1470222128159064e+00 9.0921170255515396e+00 8.0151855377920711e+00 1 0 1
1761 1 3 0.0000000000000000e+00 1.2292304845306484e+01 2.9518792761053705e+00 3.2406197144564080e+00 0 0 2
923 1 2 0.0000000000000000e+00 2.3718210670978483e+00 3.4758111987795131e+00 7.3472733079249633e-02 1 0 0
48 1 1 2.6500000000000001e-01 6.1956159373510626e+00 5.1859816057159414e+00 1.7868432439296072e+01 0 0 0
438 1 1 2.6500000000000001e-01 2.1105214696311725e+00 7.2143772686742276e+00 1.8022948634827486e+01 0 -1 0
1839 1 5 -6.9999999999999996e-01 8.4866580356562142e+00 7.8464837625195276e+00 1.3708917885385315e+01 0 1 0
47 1 2 0.0000000000000000e+00 7.1586564314615515e+00 6.2335460106712794e+00 1.8373176164716138e+01 0 0 0
437 1 2 0.0000000000000000e+00 1.7513043672240010e+00 6.5260883120464435e+00 1.6706180496096451e+01 0 -1 0
987 1 2 0.0000000000000000e+00 3.6466299565414535e+00 5.9479927675620825e+00 1.3365730692584787e+01 0 0 1
1632 1 2 0.0000000000000000e+00 8.0152796910655670e+00 3.1607565665639692e+00 1.0999117211922067e+01 0 0 -1
1833 1 2 0.0000000000000000e+00 1.0105776012999147e+01 1.3326190682935968e+00 1.7501544584375129e+01 0 1 0
1834 1 2 0.0000000000000000e+00 1.0530998636664684e+01 2.7679432962735895e+00 1.7160121767256825e+01 0 1 0
1635 1 2 0.0000000000000000e+00 1.1825902299016406e+01 4.1190979408052941e+00 1.0945234728715370e+01 0 0 -1
989 1 5 -6.9999999999999996e-01 5.5452108511623566e+00 7.0141557929927636e+00 1.4408836399255064e+01 0 0 1
1631 1 3 0.0000000000000000e+00 6.8913480653427781e+00 3.6302298654518657e+00 1.0042904684849438e+01 0 0 -1
988 1 1 2.6500000000000001e-01 5.0974766222368135e+00 5.8566139315653087e+00 1.3706430748737585e+01 0 0 1
1538 1 1 2.6500000000000001e-01 1.1269309393408170e+01 7.8187353973876270e+00 1.0372965744077522e+01 0 0 1
984 1 2 0.0000000000000000e+00 7.9396930152805922e-01 4.4290202487595431e+00 1.1060740318718787e+01 0 0 1
1633 1 2 0.0000000000000000e+00 9.3281085677653159e+00 3.9060291180646582e+00 1.0826774855966974e+01 0 0 -1
1840 1 4 4.3500000000000000e-01 7.4972544830030996e+00 7.7183760351915485e+00 1.3697504866507973e+01 0 1 0
1183 1 2 0.0000000000000000e+00 5.2357671856267753e+00 1.1372206199857671e+00 1.3436349048070669e+01 1 0 0
990 1 4 4.3500000000000000e-01 5.6783816594877461e+00 6.7527142750273841e+00 1.5304772235600565e+01 0 0 1
1182 1 2 0.0000000000000000e+00 4.8970549353352490e+00 6.4760648872595794e-01 1.1999337241787490e+01 1 0 0
1185 1 2 0.0000000000000000e+00 4.4466621041009313e+00 2.0026720261978501e+00 1.5761671011793439e+01 1 0 0
1837 1 2 0.0000000000000000e+00 9.2383380743600529e+00 5.5038123412780608e+00 1.4440369038165409e+01 0 1 0
1801 1 3 0.0000000000000000e+00 4.2605015661070944e-01 1.2193874030654923e+00 1.4034097095419730e+01 1 0 0
1186 1 2 0.0000000000000000e+00 3.4156063688070044e+00 1.7954348602966845e+00 1.6876767250062340e+01 1 0 0
1835 1 2 0.0000000000000000e+00 9.7152827308542768e+00 3.2784819875263125e+00 1.5997401869276100e+01 0 1 0
985 1 2 0.0000000000000000e+00 1.5916079400422674e+00 5.3379334008446992e+00 1.1941343401347734e+01 0 0 1
1634 1 2 0.0000000000000000e+00 1.0600099625616426e+01 3.3019108304153071e+00 1.1312987396651490e+01 0 0 -1
1836 1 2 0.0000000000000000e+00 9.9592458438151823e+00 4.7421230825477974e+00 1.5600053438875589e+01 0 1 0
49 1 5 -6.9999999999999996e-01 5.3697164979753644e+00 5.7368234866193308e+00 1.6893918890764677e+01 0 0 0
1838 1 1 2.6500000000000001e-01 8.8521655061380091e+00 6.9907461266550310e+00 1.4801285937864087e+01 0 1 0
1184 1 2 0.0000000000000000e+00 4.0965458895396329e+00 1.3058801232903903e+00 1.4469403243377068e+01 1 0 0
50 1 4 4.3500000000000000e-01 4.6631379167589184e+00 6.1247443928297454e+00 1.7490811027161076e+01 0 0 0
1187 1 2 0.0000000000000000e+00 3.5823542424291355e+00 2.7176903059911388e+00 1.8093482639644915e+01 1 0 0
393 1 2 0.0000000000000000e+00 5.0297584931936310e+00 8.3958263313056491e+00 1.0190731313641161e+01 1 0 1
986 1 2 0.0000000000000000e+00 2.8922699744108433e+00 4.8445267386405035e+00 1.2618852010876843e+01 0 0 1
1850 1 4 4.3500000000000000e-01 1.0068668651625700e+01 9.3198633238657269e+00 1.3504411223949390e+01 0 0 0
391 1 3 0.0000000000000000e+00 3.9892716229556919e+00 6.2411152061494075e+00 9.4374283647769701e+00 1 0 1
439 1 5 -6.9999999999999996e-01 3.2456048822444448e+00 6.4877730790188455e+00 1.8527952803565235e+01 0 -1 0
436 1 2 0.0000000000000000e+00 2.1156623818643799e-01 6.5607827766985123e+00 1.6652085251274567e+01 0 -1 0
392 1 2 0.0000000000000000e+00 5.2988539957390977e+00 6.9943523221572717e+00 9.5655404006040428e+00 1 0 1
394 1 2 0.0000000000000000e+00 6.2617816579748729e+00 9.3593625724938843e+00 1.0197863079276575e+01 1 0 1
532 1 2 0.0000000000000000e+00 8.8864894444146501e+00 2.7919713387194380e+00 2.2963118938277660e+01 0 1 -1
44 1 2 0.0000000000000000e+00 1.0715498303802649e+01 6.3750150800238004e+00 2.0084094395877454e+01 0 0 0
785 1 2 0.0000000000000000e+00 7.1330888031449193e+00 7.6479371804814553e+00 2.6386232115889587e+01 0 0 -1
1733 1 2 0.0000000000000000e+00 2.2148473397257851e-01 7.7968237507165927e+00 2.4490491329702945e+01 1 0 -1
1189 1 5 -6.9999999999999996e-01 2.7586642917339432e+00 3.6956782205325651e+00 2.0053617957521219e+01 1 0 0
852 1 2 0.0000000000000000e+00 1.7493488698652992e+00 6.1854810685443562e-01 2.2717156839949492e+01 1 0 1
440 1 4 4.3500000000000000e-01 3.3818705763577563e+00 7.0716996073494656e+00 1.9253888084955413e+01 0 -1 0
1791 1 3 0.0000000000000000e+00 5.7118656333482614e+00 4.4985289489615787e-01 2.7315802006074730e+01 0 0 0
535 1 2 0.0000000000000000e+00 8.0636205662681490e+00 4.0868384172435555e+00 2.6645170157651087e+01 0 1 -1
789 1 5 -6.9999999999999996e-01 5.1549557988917796e+00 6.3875464596677798e+00 2.2049810349620088e+01 0 0 -1
133 1 2 0.0000000000000000e+00 1.1123286495671104e+01 8.6955120391073599e+00 2.5875510760272892e+01 0 -2 -1
45 1 2 0.0000000000000000e+00 9.4163208779000467e+00 6.8872124909636998e+00 1.9484100465967515e+01 0 0 0
786 1 2 0.0000000000000000e+00 6.0588593340011521e+00 7.8266656764318556e+00 2.5322341832136345e+01 0 0 -1
788 1 1 2.6500000000000001e-01 5.0928808675675876e+00 6.4550308531269307e+00 2.3451608285786204e+01 0 0 -1
784 1 2 0.0000000000000000e+00 6.3927533841325710e+00 8.3854052135670809e+00 2.7539252472718726e+01 0 0 -1
132 1 2 0.0000000000000000e+00 1.0980250944979723e+01 7.2909642761007785e+00 2.6390450857319426e+01 0 -2 -1
46 1 2 0.0000000000000000e+00 8.4746277126496601e+00 5.8081291640112225e+00 1.9101303285680618e+01 0 0 0
533 1 2 0.0000000000000000e+00 9.1858972003133879e+00 3.6391467763953931e+00 2.4229198531325846e+01 0 1 -1
534 1 2 0.0000000000000000e+00 8.0537767868614321e+00 3.3503515421804675e+00 2.5251159990450674e+01 0 1 -1
1732 1 2 0.0000000000000000e+00 1.4354823221050346e+00 7.1151484324625729e+00 2.5098345608571549e+01 1 0 -1
131 1 3 0.0000000000000000e+00 1.2007950658226957e+01 6.3220262498833826e+00 2.5748863886785024e+01 0 -2 -1
150 1 4 4.3500000000000000e-01 4.7148889165061343e+00 7.8084711888942788e+00 2.0759942604006952e+01 0 -1 0
531 1 3 0.0000000000000000e+00 9.6449265606409753e+00 3.0240633391666045e+00 2.1646254420328479e+01 0 1 -1
787 1 2 0.0000000000000000e+00 6.3863795404774786e+00 6.9689956785854097e+00 2.4102771846109526e+01 0 0 -1
790 1 4 4.3500000000000000e-01 4.4591167823023330e+00 5.7893576763459640e+00 2.1888210150653734e+01 0 0 -1
1190 1 4 4.3500000000000000e-01 2.9154881743618590e+00 4.5782477885876585e+00 1.9708011679493833e+01 1 0 0
851 1 3 0.0000000000000000e+00 1.1123551830105882e+00 8.2296216416019385e-01 2.4127277140690001e+01 1 0 1
1793 1 2 0.0000000000000000e+00 6.4485362104282586e+00 3.1860736600436493e-02 2.4804933910804081e+01 0 0 0
149 1 5 -6.9999999999999996e-01 3.9491103425535869e+00 8.2244659928045962e+00 2.0437981849928583e+01 0 -1 0
536 1 2 0.0000000000000000e+00 9.1286519278945626e+00 3.5574541847418941e+00 2.7632811574794388e+01 0 1 -1
1188 1 1 2.6500000000000001e-01 2.2776312182099447e+00 3.0210704345115236e+00 1.8887741094810302e+01 1 0 0
43 1 2 0.0000000000000000e+00 1.1912144106784755e+01 7.3186787196457139e+00 2.0350700630394073e+01 0 0 0
1731 1 3 0.0000000000000000e+00 1.5704295963575456e+00 5.6414827404747765e+00 2.4805138207359239e+01 1 0 -1
1832 1 2 0.0000000000000000e+00 1.0385017620899434e+01 8.9324886366999179e-01 1.8954204468259633e+01 0 1 0
1734 1 2 0.0000000000000000e+00 3.9391516611004712e-01 9.3595797605442979e+00 2.4376744353656147e+01 1 0 -1
1991 1 3 0.0000000000000000e+00 2.2057188517715227e+00 7.2351763240318014e+00 3.0381640612050060e+01 2 0 0
247 1 2 0.0000000000000000e+00 5.4336796916573258e+00 3.2301019495431937e+00 3.1754997787068728e+01 1 0 -1
1712 1 2 0.0000000000000000e+00 6.6990271263554595e+00 7.2480640011114161e-01 3.5262244292155408e+01 0 0 0
308 1 1 2.6500000000000001e-01 1.0440858597650902e+01 7.2865105451391683e+00 3.2180308780777970e+01 0 1 0
1714 1 2 0.0000000000000000e+00 8.5469263268531144e+00 2.4797295308979161e+00 3.5476083881526137e+01 0 0 0
1861 1 3 0.0000000000000000e+00 1.1589131742656569e+00 3.2988223350553367e+00 3.3565066444003804e+01 0 1 0
248 1 1 2.6500000000000001e-01 5.4777881571742926e+00 4.5909272347718328e+00 3.2406968252343013e+01 1 0 -1
245 1 2 0.0000000000000000e+00 4.5924681869692829e+00 9.7333947132424736e-01 3.1084731802296307e+01 1 0 -1
539 1 5 -6.9999999999999996e-01 9.7784678607827420e+00 3.7528367637123994e+00 3.1369229313904963e+01 0 1 -1
1717 1 2 0.0000000000000000e+00 1.1987688471089665e+01 4.2943780524632764e+00 3.6149414436491838e+01 0 0 0
926 1 2 0.0000000000000000e+00 4.3898793625425512e+00 5.6040508984228374e+00 3.6270386335662558e+01 1 0 -1
249 1 5 -6.9999999999999996e-01 6.8573356771376082e+00 4.9826484982240480e+00 3.2449525508841141e+01 1 0 -1
307 1 2 0.0000000000000000e+00 1.1429102063741819e+01 7.7207350233853544e+00 3.3278561158525839e+01 0 1 0
1713 1 2 0.0000000000000000e+00 8.2190228705444923e+00 9.9497956877555926e-01 3.5173058453028453e+01 0 0 0
250 1 4 4.3500000000000000e-01 7.3874183076549249e+00 4.2917005690052150e+00 3.2078585408037419e+01 1 0 -1
782 1 2 0.0000000000000000e+00 6.1788825237029457e+00 8.5248201173481579e+00 3.0093407988626776e+01 0 0 -1
781 1 3 0.0000000000000000e+00 6.8187360225799365e+00 8.3240023944452481e+00 3.1480623075944774e+01 0 0 -1
927 1 2 0.0000000000000000e+00 5.2720561042315248e+00 6.4002078286533965e+00 3.5374728522779058e+01 1 0 -1
1715 1 2 0.0000000000000000e+00 1.0052283531900306e+01 2.6938690143748643e+00 3.5475968569917868e+01 0 0 0
540 1 4 4.3500000000000000e-01 1.0138711354468775e+01 4.6471048578722538e+00 3.1298575903994283e+01 0 1 -1
930 1 4 4.3500000000000000e-01 7.1647340205545538e+00 6.2380409035290132e+00 3.3976603075584592e+01 1 0 -1
929 1 5 -6.9999999999999996e-01 7.5661000543113008e+00 6.8260864447304330e+00 3.4613702267054322e+01 1 0 -1
246 1 2 0.0000000000000000e+00 4.3720828342279185e+00 2.1521071214527132e+00 3.2100915768401542e+01 1 0 -1
306 1 2 0.0000000000000000e+00 1.1091720794732625e+01 8.9746457742680832e+00 3.4189729938433651e+01 0 1 0
924 1 2 0.0000000000000000e+00 3.9052168672391598e+00 3.3507293911275542e+00 3.7438762288333727e+01 1 0 -1
1716 1 2 0.0000000000000000e+00 1.0488631796674222e+01 4.1155373840867329e+00 3.5867873890693154e+01 0 0 0
309 1 5 -6.9999999999999996e-01 1.0978219259196093e+01 6.1394358264529174e+00 3.1448846940246888e+01 0 1 0
538 1 1 2.6500000000000001e-01 9.8986093247733855e+00 3.2807680606322189e+00 3.0004197932402594e+01 0 1 -1
310 1 4 4.3500000000000000e-01 1.1863617580672878e+01 6.3902371322832527e+00 3.1296798132037758e+01 0 1 0
928 1 1 2.6500000000000001e-01 6.7262830601121362e+00 6.7204962488868158e+00 3.5778482444384530e+01 1 0 -1
925 1 2 0.0000000000000000e+00 4.7254904093584917e+00 4.0640043772841832e+00 3.6351775849256398e+01 1 0 -1
783 1 2 0.0000000000000000e+00 7.0318348309899212e+00 8.1412251521454451e+00 2.8944228993544797e+01 0 0 -1
1993 1 2 0.0000000000000000e+00 3.0332593849926692e-01 5.9612083136468081e+00 2.9008746652693748e+01 2 0 0
1992 1 2 0.0000000000000000e+00 1.4590272973283285e+00 6.9897655117166826e+00 2.9060159076883359e+01 2 0 0
1741 1 3 0.0000000000000000e+00 2.6949256901342182e+00 8.8137150812197209e+00 3.4061277047920974e+01 0 1 0
537 1 2 0.0000000000000000e+00 9.2001229931969668e+00 4.2595877742897477e+00 2.8972766180622518e+01 0 1 -1
1065 1 2 0.0000000000000000e+00 1.1229986367778030e+01 1.3952425456345448e+01 7.5372171259485521e+00 0 -1 0
1748 1 1 2.6500000000000001e-01 2.2349948718865162e+00 1.2938664609788610e+01 4.3895654484072528e+00 0 1 1
1067 1 2 0.0000000000000000e+00 9.2938569227091090e+00 1.2547098334916530e+01 6.3259877818743329e+00 0 -1 0
620 1 4 4.3500000000000000e-01 7.7437801995725275e+00 1.6841031571570102e+01 4.5598125873665412e+00 0 0 1
1978 1 1 2.6500000000000001e-01 1.7580180805326282e+00 1.0498382020417822e+01 7.9040200936277989e+00 1 0 1
1066 1 2 0.0000000000000000e+00 1.0520553758604070e+01 1.2680180850620280e+01 7.2225253388209039e+00 0 -1 0
1749 1 5 -6.9999999999999996e-01 1.1454186011567205e+00 1.2961864491595861e+01 5.2958879816622311e+00 0 1 1
1898 1 1 2.6500000000000001e-01 4.9598636731339791e+00 1.3858889237895045e+01 7.5542614706597835e+00 0 1 1
1068 1 1 2.6500000000000001e-01 8.1881531495135391e+00 1.3610018846235587e+01 6.4511533300841402e+00 0 -1 0
1069 1 5 -6.9999999999999996e-01 8.4993390864962901e+00 1.4752510346961353e+01 5.7034810244625751e+00 0 -1 0
1980 1 4 4.3500000000000000e-01 3.3702968473047226e+00 1.1150999492214297e+01 8.6487559014418789e+00 1 0 1
38 1 1 2.6500000000000001e-01 7.7302850955044233e+00 1.4068371367178431e+01 1.7681204546004932e+00 -1 1 0
1531 1 3 0.0000000000000000e+00 5.9596665043533825e+00 1.0814029054774652e+01 4.8116776896934503e+00 0 0 1
619 1 5 -6.9999999999999996e-01 7.4736895295802812e+00 1.6972544489792284e+01 3.6530192572556670e+00 0 0 1
1745 1 2 0.0000000000000000e+00 3.5616429616320322e+00 1.0433523347169565e+01 1.3885733184824305e+00 0 1 1
1895 1 2 0.0000000000000000e+00 3.1488959860293937e+00 1.7202378810016125e+01 6.5145705281763835e+00 0 1 1
491 1 3 0.0000000000000000e+00 1.4389414311388422e+00 1.6492823763086406e+01 3.0717675214288040e+00 1 0 0
1900 1 4 4.3500000000000000e-01 4.3543316750925740e+00 1.3164572498898085e+01 9.3037917574166453e+00 0 1 1
869 1 5 -6.9999999999999996e-01 9.2507021405477392e+00 1.7704095912064766e+01 8.9101595129273843e+00 1 0 -1
1746 1 2 0.0000000000000000e+00 3.3419678942957631e+00 1.1664438287752036e+01 2.3467827589952983e+00 0 1 1
1896 1 2 0.0000000000000000e+00 4.2883256797484739e+00 1.6158542175181015e+01 6.4382622763952488e+00 0 1 1
618 1 1 2.6500000000000001e-01 6.4710487854122336e+00 1.7982151997750819e+01 3.7064511231886312e+00 0 0 1
1747 1 2 0.0000000000000000e+00 2.2230290505146186e+00 1.1783060927325886e+01 3.3801950575583266e+00 0 1 1
492 1 2 0.0000000000000000e+00 5.3549490591648230e-01 1.5561059816612669e+01 2.2794960220319287e+00 1 0 0
1750 1 4 4.3500000000000000e-01 1.3302916885876868e+00 1.3690439111570225e+01 5.9351149188525589e+00 0 1 1
1070 1 4 4.3500000000000000e-01 8.4571885469278492e+00 1.4567950337411924e+01 4.7275918190824457e+00 0 -1 0
40 1 4 4.3500000000000000e-01 7.3654329426596936e+00 1.5419401728388893e+01 3.0095795181468259e+00 -1 1 0
39 1 5 -6.9999999999999996e-01 7.5509426418419308e+00 1.4513042061581348e+01 3.0845598526643867e+00 -1 1 0
1899 1 5 -6.9999999999999996e-01 4.6264583242016482e+00 1.2783201089087074e+01 8.4541171216183901e+00 0 1 1
36 1 2 0.0000000000000000e+00 7.8220741294415488e+00 1.2239394528947010e+01 6.8176604592028053e-02 -1 1 0
381 1 3 0.0000000000000000e+00 1.0982639685551103e+01 1.2722851033122071e+01 3.1180925878421246e+00 1 0 0
1897 1 2 0.0000000000000000e+00 3.9490594427924237e+00 1.5002066344934180e+01 7.4237925937759490e+00 0 1 1
870 1 4 4.3500000000000000e-01 1.0120881136430812e+01 1.8123779488558373e+01 8.8902412898711223e+00 1 0 -1
37 1 2 0.0000000000000000e+00 7.9575507688917728e+00 1.2503179805660109e+01 1.5844926176639011e+00 -1 1 0
1064 1 2 0.0000000000000000e+00 1.2326483224656062e+01 1.3637957722091857e+01 8.5284944507044962e+00 0 -1 0
868 1 1 2.6500000000000001e-01 8.6182260802598929e+00 1.7493904957879380e+01 7.6554901653338465e+00 1 0 -1
1894 1 2 0.0000000000000000e+00 3.2098660580585223e+00 1.8283079034091898e+01 5.4489022517065093e+00 0 1 1
1979 1 5 -6.9999999999999996e-01 2.6060785506480402e+00 1.0788082967311341e+01 8.9789981055363501e+00 1 0 1
1744 1 2 0.0000000000000000e+00 2.8880053826146814e+00 1.0666244307116383e+01 1.0035718581550303e-02 0 1 1
382 1 2 0.0000000000000000e+00 1.2472289513419526e+01 1.2983533083351995e+01 3.3366489386027882e+00 1 0 0
1532 1 2 0.0000000000000000e+00 6.2613000541101789e+00 9.3737519978440815e+00 4.5489987780360872e+00 0 0 1
111 1 3 0.0000000000000000e+00 2.8053816078275795e+00 1.6877782806679619e+01 1.5556163050631133e+01 0 1 0
840 1 4 4.3500000000000000e-01 4.7825956501163587e+00 1.3612697325380656e+01 1.1362326265311834e+01 0 0 0
398 1 1 2.6500000000000001e-01 8.2907082898364255e+00 1.4210209033382382e+01 1.0392491142061138e+01 1 0 1
1412 1 2 0.0000000000000000e+00 8.7134383020645523e-02 1.4063875734340728e+01 1.6577574559292785e+01 1 0 0
395 1 2 0.0000000000000000e+00 5.9900351651249304e+00 1.0866743666100279e+01 1.0383984242152719e+01 1 0 1
1849 1 5 -6.9999999999999996e-01 1.0373555154881245e+01 1.0002775027914163e+01 1.4057326503798446e+01 0 0 0
1563 1 2 0.0000000000000000e+00 4.1004520499567354e+00 1.8188891828777791e+01 1.1698407009747825e+01 1 0 0
399 1 5 -6.9999999999999996e-01 7.7118973584557278e+00 1.5504076403094579e+01 1.0599165389715493e+01 1 0 1
1417 1 2 0.0000000000000000e+00 3.1425924495772044e+00 1.0175448954180737e+01 1.4691138956923908e+01 1 0 0
167 1 2 0.0000000000000000e+00 8.0354025944285734e+00 1.5271770719311089e+01 1.5313514382690437e+01 0 -1 1
1578 1 1 2.6500000000000001e-01 7.1343498868010267e+00 1.0720428240617531e+01 1.5240382299543507e+01 0 0 -1
163 1 2 0.0000000000000000e+00 1.0601500663264494e+01 1.8602537165466956e+01 1.8053327573880775e+01 0 -1 1
169 1 5 -6.9999999999999996e-01 6.5943319626835812e+00 1.3524596904444056e+01 1.4420026160495750e+01 0 -1 1
836 1 2 0.0000000000000000e+00 3.0254296233827654e-01 1.2983736937934619e+01 1.2216181272133559e+01 0 0 0
397 1 2 0.0000000000000000e+00 7.0811947863128086e+00 1.3215657050228209e+01 1.0482034338577524e+01 1 0 1
838 1 1 2.6500000000000001e-01 2.8887354807505332e+00 1.3278463862728765e+01 1.1778686785009150e+01 0 0 0
168 1 1 2.6500000000000001e-01 7.3253071169290198e+00 1.4687743754217880e+01 1.4071740994859855e+01 0 -1 1
629 1 5 -6.9999999999999996e-01 1.0856096278061884e+01 9.5230532893141699e+00 1.6840767976073412e+01 0 1 0
1577 1 2 0.0000000000000000e+00 6.9411775928326689e+00 1.0731016672993279e+01 1.6761183656801467e+01 0 0 -1
166 1 2 0.0000000000000000e+00 9.2014979489114594e+00 1.6232599986622610e+01 1.5139918268746131e+01 0 -1 1
400 1 4 4.3500000000000000e-01 8.1795849708138579e+00 1.6215141354711776e+01 1.0201884997347607e+01 1 0 1
113 1 2 0.0000000000000000e+00 5.2474537056722026e-01 1.7502763422356718e+01 1.4943462383395634e+01 0 1 0
1430 1 4 4.3500000000000000e-01 4.6001526904943674e-01 9.5783704522129014e+00 1.3028823899795412e+01 1 0 0
1418 1 1 2.6500000000000001e-01 3.0640209412562815e+00 9.6432303526611918e+00 1.3236661527366641e+01 1 0 0
164 1 2 0.0000000000000000e+00 1.0555114407281122e+01 1.7991111080586734e+01 1.6691525425890308e+01 0 -1 1
1414 1 2 0.0000000000000000e+00 2.4488242180396491e+00 1.2843141187536570e+01 1.6497666434655116e+01 1 0 0
628 1 1 2.6500000000000001e-01 1.0237291109101097e+01 1.0601245352144987e+01 1.7482603791759221e+01 0 1 0
1561 1 3 0.0000000000000000e+00 1.7966870971106914e+00 1.7329403523768462e+01 1.1072042148746874e+01 1 0 0
165 1 2 0.0000000000000000e+00 9.5097950833038443e+00 1.6905232755213504e+01 1.6492632848736047e+01 0 -1 1
1415 1 2 0.0000000000000000e+00 2.3503836316552049e+00 1.1311973429592097e+01 1.6753553008958264e+01 1 0 0
837 1 2 0.0000000000000000e+00 1.4870952805590085e+00 1.3100143666946961e+01 1.1246641942017069e+01 0 0 0
839 1 5 -6.9999999999999996e-01 3.9480176201811497e+00 1.3579970421556839e+01 1.0839058183446921e+01 0 0 0
170 1 4 4.3500000000000000e-01 7.1882728502946334e+00 1.2853205224240476e+01 1.4581523535459722e+01 0 -1 1
1580 1 4 4.3500000000000000e-01 8.9721313075492386e+00 1.0936424836610925e+01 1.4527266698150189e+01 0 0 -1
1579 1 5 -6.9999999999999996e-01 8.2831778107765555e+00 1.1537660891797819e+01 1.4880149210305508e+01 0 0 -1
396 1 2 0.0000000000000000e+00 7.2703359639374181e+00 1.1669047460657699e+01 1.0431019110304705e+01 1 0 1
1564 1 2 0.0000000000000000e+00 5.6047245867581150e+00 1.7994024627325640e+01 1.1691263754614202e+01 1 0 0
1848 1 1 2.6500000000000001e-01 1.1555444156846312e+01 1.0434061669408104e+01 1.3365850662645618e+01 0 0 0
1576 1 2 0.0000000000000000e+00 6.3727806045059783e+00 1.1980211023176034e+01 1.7444279261716520e+01 0 0 -1
112 1 2 0.0000000000000000e+00 1.9557296911284334e+00 1.7996164714303500e+01 1.4878220007755571e+01 0 1 0
1416 1 2 0.0000000000000000e+00 1.9568159092055473e+00 1.0429606820361599e+01 1.5553935633326407e+01 1 0 0
1413 1 2 0.0000000000000000e+00 1.5136511539066366e+00 1.3822354223449805e+01 1.7291877191805188e+01 1 0 0
630 1 4 4.3500000000000000e-01 1.0946688352296116e+01 9.7290744534086997e+00 1.5944559526375853e+01 0 1 0
1420 1 4 4.3500000000000000e-01 2.6127918472644658e+00 1.0211898171415680e+01 1.1398114869985269e+01 1 0 0
1419 1 5 -6.9999999999999996e-01 2.1904554405405636e+00 1.0284987572145289e+01 1.2294657403461565e+01 1 0 0
1562 1 2 0.0000000000000000e+00 3.3637953584718363e+00 1.7075170063844283e+01 1.0973281158193004e+01 1 0 0
1575 1 2 0.0000000000000000e+00 5.4277904157253856e+00 1.1820023149374725e+01 1.8716955293138298e+01 0 0 -1
142 1 2 0.0000000000000000e+00 1.7852489149382598e+00 1.6501569725639431e+01 2.2704010554502130e+01 0 -1 0
336 1 2 0.0000000000000000e+00 1.3413692182211647e+00 1.5912377693203638e+01 2.6794199444516284e+01 1 0 0
656 1 2 0.0000000000000000e+00 9.9802816258040625e+00 1.3706481355817317e+01 2.5757127166784475e+01 0 0 0
655 1 2 0.0000000000000000e+00 9.9377946053879640e+00 1.3044924290748432e+01 2.4338469991628958e+01 0 0 0
147 1 2 0.0000000000000000e+00 2.6923697562462596e+00 1.0345333048445132e+01 2.0708870874786015e+01 0 -1 0
1123 1 2 0.0000000000000000e+00 2.5868259218979301e+00 1.1343770779393136e+01 2.7146626846464610e+01 1 0 -1
931 1 3 0.0000000000000000e+00 8.6735022534016295e+00 1.4163337131126463e+01 1.9308238604623160e+01 1 0 1
141 1 3 0.0000000000000000e+00 1.5422670979503255e+00 1.7864757883716919e+01 2.2114670145393411e+01 0 -1 0
143 1 2 0.0000000000000000e+00 1.4516825667105331e+00 1.5277987094271964e+01 2.1848148348959985e+01 0 -1 0
334 1 2 0.0000000000000000e+00 3.7436679571824616e+00 1.6673692237492666e+01 2.6227759601433974e+01 1 0 0
332 1 2 0.0000000000000000e+00 5.7600811273657833e+00 1.7385904584047221e+01 2.5011932698993668e+01 1 0 0
653 1 2 0.0000000000000000e+00 8.7587190632589405e+00 1.1238327653233521e+01 2.2917802359467604e+01 0 0 0
1122 1 2 0.0000000000000000e+00 3.4426835245663150e+00 1.0710281384129928e+01 2.6000352261376960e+01 1 0 -1
331 1 3 0.0000000000000000e+00 7.2903770253496152e+00 1.7460691950950668e+01 2.4810281279089420e+01 1 0 0
932 1 2 0.0000000000000000e+00 1.0109437458447072e+01 1.4520319729712767e+01 1.9740565099789038e+01 1 0 1
1571 1 3 0.0000000000000000e+00 3.9382823170682091e+00 1.6745110240615130e+01 1.9132723111681088e+01 0 0 -1
658 1 1 2.6500000000000001e-01 1.1547570264867087e+01 1.5108906928618630e+01 2.7158912650348270e+01 0 0 0
337 1 2 0.0000000000000000e+00 4.7614789129250179e-01 1.4937584301995102e+01 2.7574860576520638e+01 1 0 0
146 1 2 0.0000000000000000e+00 2.4949122295084636e+00 1.1407538419570773e+01 2.1786624201963122e+01 0 -1 0
148 1 1 2.6500000000000001e-01 3.7918055586774155e+00 9.4101791970974418e+00 2.1118132823985452e+01 0 -1 0
333 1 2 0.0000000000000000e+00 5.2110173220982352e+00 1.6249792142718931e+01 2.5999144227330934e+01 1 0 0
1572 1 2 0.0000000000000000e+00 4.3874600835850917e+00 1.5501314244073107e+01 1.9842065084462462e+01 0 0 -1
935 1 2 0.0000000000000000e+00 1.1843464905643577e+01 1.6723783310339542e+01 2.2518017016939773e+01 1 0 1
1124 1 2 0.0000000000000000e+00 1.5210102984349239e+00 1.0460194469486243e+01 2.7860727848595491e+01 1 0 -1
933 1 2 0.0000000000000000e+00 1.0223662341212895e+01 1.5409471301226223e+01 2.0989893417480733e+01 1 0 1
144 1 2 0.0000000000000000e+00 2.1832096371189471e+00 1.3981520251969817e+01 2.2176923161823265e+01 0 -1 0
335 1 2 0.0000000000000000e+00 2.8198129352564982e+00 1.5561855165321933e+01 2.6667151713649190e+01 1 0 0
654 1 2 0.0000000000000000e+00 8.6526944468763602e+00 1.2267619963007634e+01 2.4075455732225262e+01 0 0 0
145 1 2 0.0000000000000000e+00 1.9488248191763464e+00 1.2740618057094045e+01 2.1228361098333828e+01 0 -1 0
934 1 2 0.0000000000000000e+00 1.1681088839454711e+01 1.5874052905841646e+01 2.1278264250137084e+01 1 0 1
1573 1 2 0.0000000000000000e+00 4.6368659827738030e+00 1.4322622785030768e+01 1.8939980117376841e+01 0 0 -1
1574 1 2 0.0000000000000000e+00 5.2348836502902190e+00 1.3070964455415435e+01 1.9593247702402358e+01 0 0 -1
625 1 2 0.0000000000000000e+00 1.2208171779398910e+01 1.1093683522227201e+01 2.1051376807338279e+01 0 1 0
652 1 2 0.0000000000000000e+00 7.4486134777776254e+00 1.0543090051110703e+01 2.2511752472632480e+01 0 0 0
1121 1 3 0.0000000000000000e+00 4.4454373864851799e+00 1.1686874389841583e+01 2.5387841149123908e+01 1 0 -1
626 1 2 0.0000000000000000e+00 1.1821551209676498e+01 1.0957205261304400e+01 1.9556814110967817e+01 0 1 0