
variable        infile index octanol.data   # The name of the (edited) data file

#>>>>>> Simulation settings <<<<<<<

units		 real		#angstroms = length -
atom_style	 full		#How the atoms are defined in the input data file
boundary        p p p           #periodic box in x, y and z
pair_style	 lj/cut/coul/long 14.0    #'lj/cut/coul/long 12.0' for your ethanol simulation
pair_modify     tail yes            #Tail corrections
pair_modify     mix arithmetic      #Lorentz-Berthelot pair interactions between dissimilar atom

# The settings below are additional settings you must add for your ethanol simulation as already detailed in your example NPT LAMMPS script in the tutorial
# For your ethanol homework, change/edit the pair_style line as advised above and uncomment the extra settings below and you should be good to go for this section.

special_bonds   lj/coul 0.0 0.0 0.5
kspace_style    ewald 0.0001
bond_style      harmonic
angle_style     harmonic
dihedral_style  opls


# >>> Using the variable command in LAMMPS to define inputs/settings for the simulation <<<<<<

variable   simulationTemp  index 383     #Simulation temperature
variable   simulationPress equal 0.987	#Simulation pressure

# Output files frequencies
variable        dumpfreq   index 1000          #Output frequency of dump information to dump
variable        thermofreq index 1000          #Output frequency of property information to log
variable        printfreq  index 1000          #Output frequency of information to be printed
variable        restartfreq index 1000000      #Output frequency of restart files


# Simulation run times (equilibration and production)
variable        NVT_equib  index 100000       # Equilibration run length (in timesteps)
variable        NVT_prod   index 30000       # Simulation run length  (in timesteps)


# Defining properties to output
# The first expression after the 'variable' command is a user defined name for the variable, it can be anything
# The expression after the 'equal' keyword are LAMMPS special/reserved terms for those property

variable    step        equal step
variable    density     equal density
variable    temp        equal temp
variable    press       equal press
variable    ke          equal ke
variable    pe          equal pe
variable    etotal      equal etotal
variable    enthalpy    equal enthalpy


# >>>>>>>>>>> Reading data, Neighbor list settings, energy minimization, assigning initial velocities & specifying thermodynamic property output style to log files <<<<<<<<<

read_data	${infile}
read_data	octanol.data
  orthogonal box = (0 0 0) to (40 40 40)
  3 by 4 by 4 MPI processor grid
  reading atoms ...
  5400 atoms
  scanning bonds ...
  1 = max bonds/atom
  scanning angles ...
  6 = max angles/atom
  scanning dihedrals ...
  10 = max dihedrals/atom
  reading bonds ...
  5200 bonds
  reading angles ...
  9800 angles
  reading dihedrals ...
  13200 dihedrals
  4 = max # of 1-2 neighbors
  6 = max # of 1-3 neighbors
  12 = max # of 1-4 neighbors
  16 = max # of special neighbors
  special bonds CPU = 0.0239193 secs
  read_data CPU = 0.0899726 secs
neighbor        1.0 bin
neigh_modify    delay 0 every 1 check yes page 1000000 one 20000
timestep        1.0

minimize        1e-4 1e-6 10000 100000        #Energy minimize before creating velocities
Ewald initialization ...
  using 12-bit tables for long-range coulomb (src/kspace.cpp:332)
  G vector (1/distance) = 0.140701
  estimated absolute RMS force accuracy = 0.0347754
  estimated relative force accuracy = 0.000104725
  KSpace vectors: actual max1d max3d = 128 4 364
                  kxmax kymax kzmax  = 4 4 4
Neighbor list info ...
  update every 1 steps, delay 0 steps, check yes
  max neighbors/atom: 20000, page size: 1000000
  master list distance cutoff = 15
  ghost atom cutoff = 15
  binsize = 7.5, bins = 6 6 6
  1 neighbor lists, perpetual/occasional/extra = 1 0 0
  (1) pair lj/cut/coul/long, perpetual
      attributes: half, newton on
      pair build: half/bin/newton
      stencil: half/bin/3d/newton
      bin: standard
Per MPI rank memory allocation (min/avg/max) = 23.62 | 23.67 | 23.84 Mbytes
Step Temp E_pair E_mol TotEng Press 
       0            0     3405.817    1701.0249    5106.8419    4097.4389 
     518            0   -2313.0078    889.32797   -1423.6798   -1232.5021 
Loop time of 6.31799 on 48 procs for 518 steps with 5400 atoms

59.5% CPU use with 48 MPI tasks x 1 OpenMP threads

Minimization stats:
  Stopping criterion = energy tolerance
  Energy initial, next-to-last, final = 
         5106.84193569     -1423.57203144     -1423.67981613
  Force two-norm initial, final = 3350.81 23.069
  Force max component initial, final = 845.808 2.76546
  Final line search alpha, max atom move = 0.0129189 0.0357266
  Iterations, force evaluations = 518 1030

MPI task timing breakdown:
Section |  min time  |  avg time  |  max time  |%varavg| %total
---------------------------------------------------------------
Pair    | 1.0881     | 2.4359     | 3.8969     |  44.4 | 38.55
Bond    | 0.055321   | 0.089164   | 0.12716    |   5.4 |  1.41
Kspace  | 0.42614    | 1.8811     | 3.2189     |  50.7 | 29.77
Neigh   | 0.13145    | 0.13502    | 0.14022    |   0.7 |  2.14
Comm    | 0.98794    | 1.1119     | 1.302      |   6.9 | 17.60
Output  | 0          | 0          | 0          |   0.0 |  0.00
Modify  | 0          | 0          | 0          |   0.0 |  0.00
Other   |            | 0.665      |            |       | 10.53

Nlocal:    112.5 ave 146 max 70 min
Histogram: 4 4 2 3 3 11 4 6 6 5
Nghost:    5652.17 ave 5831 max 5357 min
Histogram: 15 1 0 0 0 0 0 0 11 21
Neighs:    69014.7 ave 109982 max 28120 min
Histogram: 2 3 6 7 7 4 8 5 3 3

Total # of neighbors = 3312706
Ave neighs/atom = 613.464
Ave special neighs/atom = 10.4444
Neighbor list builds = 39
Dangerous builds = 0
#velocity	all create ${simulationTemp} 886874 mom yes rot yes dist gaussian

velocity        all create  ${simulationTemp} 317879265 units box
velocity        all create  383 317879265 units box
velocity        all zero linear units box

# The 'velocity' command line above assigns initial velocities to the atoms in our data file, see the LAMMPS 'velocity' command
# The number '886874' is the seed number which helps LAMMPS to consistently assign the same randomized velocities for the same simulation with the same seed number
# Changing that seed number for your simulation of a given system is one easy way to run an 'independent' simulation of the same system as taught in class
# You will need to do this for your homework

thermo_style    custom step vol temp press ke pe etotal enthalpy evdwl ecoul epair ebond eangle edihed eimp emol elong etail lx ly lz xy xz yz density
thermo          ${thermofreq}
thermo          1000

fix npt_density all npt temp ${simulationTemp} ${simulationTemp} 100 iso ${simulationPress} ${simulationPress} 1000
fix npt_density all npt temp 383 ${simulationTemp} 100 iso ${simulationPress} ${simulationPress} 1000
fix npt_density all npt temp 383 383 100 iso ${simulationPress} ${simulationPress} 1000
fix npt_density all npt temp 383 383 100 iso 0.987 ${simulationPress} 1000
fix npt_density all npt temp 383 383 100 iso 0.987 0.987 1000

run 50000
Ewald initialization ...
  using 12-bit tables for long-range coulomb (src/kspace.cpp:332)
  G vector (1/distance) = 0.140701
  estimated absolute RMS force accuracy = 0.0347754
  estimated relative force accuracy = 0.000104725
  KSpace vectors: actual max1d max3d = 128 4 364
                  kxmax kymax kzmax  = 4 4 4
Per MPI rank memory allocation (min/avg/max) = 22.49 | 22.55 | 22.87 Mbytes
Step Volume Temp Press KinEng PotEng TotEng Enthalpy E_vdwl E_coul E_pair E_bond E_angle E_dihed E_impro E_mol E_long E_tail Lx Ly Lz Xy Xz Yz Density 
     518        64000          383     3169.997    6163.7697   -1423.6798    4740.0899    7698.8838   -2105.2356    4220.8927   -2313.0078    42.286151    240.31421     606.7276            0    889.32797   -4428.6649    -42.52282           40           40           40            0            0            0   0.67578079 
    1000    65566.037    290.07654   -1198.0942     4668.316    3853.0612    8521.3772    7375.7435   -1587.7444    4380.0326   -1636.7634    1912.1892    2594.8958     982.7396            0    5489.8246   -4429.0516   -41.507168    40.323632    40.323632    40.323632            0            0            0   0.65963985 
    2000    65315.245    393.05086   -894.97435    6325.5221    5083.1824    11408.704    10556.191   -1391.5235    4424.6099   -1394.7962    2131.4959    3218.5828    1127.8999            0    6477.9785   -4427.8826   -41.666543    40.272154    40.272154    40.272154            0            0            0   0.66217267 
    3000    63384.759    381.95267    166.06907    6146.9145    4725.9117    10872.826    11026.341   -1405.9722    4362.1147    -1474.031    2043.3214    3055.9828    1100.6384            0    6199.9426   -4430.1735   -42.935566    39.871412    39.871412    39.871412            0            0            0   0.68234022 
    4000    63183.763    386.05648    934.19019    6212.9589    4887.4153    11100.374    11961.203   -1374.1086    4333.1111     -1468.83    2135.2724    3106.1483    1114.8246            0    6356.2453   -4427.8325   -43.072149    39.829222    39.829222    39.829222            0            0            0   0.68451084 
    5000     61548.78    379.82586   -343.83843    6112.6869    4770.9416    10883.629     10574.99   -1469.1197    4335.6573   -1565.1373    2180.2099    3093.3167    1062.5522            0    6336.0789   -4431.6749   -44.216318    39.482667    39.482667    39.482667            0            0            0   0.70269419 
    6000    60398.879    378.65319    450.42718    6093.8148    4714.3729    10808.188    11204.949     -1408.65    4330.3295   -1508.5136    2042.6646    3066.4485    1113.7734            0    6222.8865   -4430.1932   -45.058129    39.235238    39.235238    39.235238            0            0            0    0.7160724 
    7000    60881.825    384.78945    475.55138    6192.5681    4831.2993    11023.867    11446.109   -1482.3645    4388.3175   -1524.7555    2093.6956    3226.6767    1035.6826            0    6356.0549   -4430.7085   -44.700705    39.339535    39.339535    39.339535            0            0            0   0.71039215 
    8000    60369.391    376.95299    265.14282    6066.4528    4725.7902    10792.243    11025.682   -1449.4458    4261.1251   -1619.9444      2085.87    3176.8937    1082.9709            0    6345.7346   -4431.6237   -45.080138    39.228852    39.228852    39.228852            0            0            0   0.71642218 
    9000    59941.017    379.95974   -878.01621    6114.8416    4652.3237    10767.165    9999.6227   -1506.8393    4356.1177   -1581.7739    2090.6843     3073.766    1069.6473            0    6234.0976   -4431.0522   -45.402307    39.135844    39.135844    39.135844            0            0            0   0.72154215 
   10000    59917.968    387.01392   -221.48669    6228.3673    4455.4033    10683.771    10490.226   -1547.0178    4356.1595   -1622.5733    2026.8797    3048.9651    1002.1319            0    6077.9767    -4431.715   -45.419773    39.130827    39.130827    39.130827            0            0            0   0.72181972 
   11000    59364.003    382.48174   -127.08625    6155.4291    4709.4108     10864.84    10754.813   -1529.7827     4360.754   -1598.8535    2152.2696    3099.2723    1056.7225            0    6308.2643   -4429.8248   -45.843615     39.00986     39.00986     39.00986            0            0            0    0.7285555 
   12000     59358.14    380.51699   -1084.2709    6123.8097     4672.042    10795.852    9857.2227   -1490.0415    4286.4464   -1634.3283    2145.1104    3148.5445    1012.7155            0    6306.3703   -4430.7332   -45.848142    39.008576    39.008576    39.008576            0            0            0   0.72862745 
   13000    59344.285      383.961   -652.65016    6179.2354    4477.6478    10656.883     10092.03   -1496.1506    4196.1558   -1730.8169    2090.4934    3114.3826    1003.5888            0    6208.4647   -4430.8222   -45.858847    39.005541    39.005541    39.005541            0            0            0   0.72879756 
   14000    59572.005    383.97914   -445.64486    6179.5273    4481.3538    10660.881    10273.706   -1538.5903    4261.2114   -1706.9079    2106.4716    3069.8938    1011.8963            0    6188.2617    -4429.529   -45.683546    39.055368    39.055368    39.055368            0            0            0   0.72601166 
   15000    58098.812    386.49547   -727.16482    6220.0236    4428.0052    10648.029    10031.894   -1574.4971    4254.2917   -1752.2078     2067.687    3106.6824    1005.8435            0    6180.2129   -4432.0023   -46.841929    38.730736    38.730736    38.730736            0            0            0    0.7444209 
   16000    59156.478    379.99347   -1246.4666    6115.3844    4439.7671    10555.152    9479.7792   -1541.4907    4285.1553   -1686.3462    2068.2508     3086.804     971.0586            0    6126.1134   -4430.0109   -46.004437     38.96435     38.96435     38.96435            0            0            0   0.73111131 
   17000    58048.304    384.59745    534.77949     6189.478    4301.5526    10491.031    10943.762   -1612.0577     4263.686   -1779.8625     2057.112    3014.3583    1009.9448            0    6081.4151   -4431.4909   -46.882687    38.719509    38.719509    38.719509            0            0            0   0.74506863 
   18000    58625.025    380.95991   -1229.6843    6130.9377    4422.4934    10553.431    9502.0685   -1564.2307    4299.6127   -1696.3702    2132.3517    3003.2967    983.21525            0    6118.8636   -4431.7521   -46.421481    38.847315    38.847315    38.847315            0            0            0   0.73773906 
   19000    58179.198    384.04039    207.50004    6180.5131    4418.7657    10599.279    10775.339   -1561.9879    4284.8269   -1708.9352    2032.1542    3086.6482    1008.8985            0    6127.7009   -4431.7741   -46.777208    38.748591    38.748591    38.748591            0            0            0   0.74339234 
   20000    58130.598    377.74984    161.19988    6079.2768     4330.272    10409.549     10546.21   -1540.7997    4191.2747   -1777.9743    2027.5895    3107.3953    973.26148            0    6108.2463   -4428.4493   -46.816316    38.737798    38.737798    38.737798            0            0            0   0.74401385 
   21000    57968.754    384.36284    1229.4594    6185.7024     4394.024    10579.726     11619.13   -1525.1272    4193.4222    -1762.204    2091.5243    3055.4235    1009.2801            0     6156.228   -4430.4991   -46.947023    38.701814    38.701814    38.701814            0            0            0   0.74609108 
   22000    59035.221    386.47795    1058.6118    6219.7417    4520.9007    10740.642    11652.073   -1529.0582    4302.7959   -1658.2561    2069.0315    3130.3205    979.80486            0    6179.1569   -4431.9939   -46.098929    38.937709    38.937709    38.937709            0            0            0     0.732613 
   23000    59508.106     386.4563    53.259669    6219.3934    4623.7797    10843.173    10889.395    -1524.168    4289.6726   -1665.6571    2133.6787    3171.9537    983.80441            0    6289.4368   -4431.1618   -45.732601    39.041399    39.041399    39.041399            0            0            0   0.72679124 
   24000    58113.791    386.75395   -457.87574    6224.1835    4344.8748    10569.058    10180.995   -1567.8811    4257.3686   -1742.7335    2062.7126    3071.3982    953.49741            0    6087.6083   -4432.2209   -46.829856    38.734064    38.734064    38.734064            0            0            0   0.74422903 
   25000    58553.906    389.69702    440.12529    6271.5475    4413.1256    10684.673    11060.518   -1525.7513    4243.1224    -1714.207    2045.8639    3103.2828    978.18585            0    6127.3326   -4431.5781   -46.477864      38.8316      38.8316      38.8316            0            0            0    0.7386351 
   26000    57996.417    391.86087    150.55893    6306.3712    4399.2858    10705.657    10833.002   -1622.2556    4339.3441   -1716.0224     2039.205    3119.4635    956.63976            0    6115.3082   -4433.1109   -46.924631    38.707969    38.707969    38.707969            0            0            0   0.74573521 
   27000    58523.078    381.77611   -201.73834    6144.0732    4361.8386    10505.912    10333.728   -1579.3195    4281.3544   -1728.5345    2090.7064     3047.629    952.03773            0     6090.373   -4430.5694   -46.502347    38.824784    38.824784    38.824784            0            0            0   0.73902419 
   28000    58947.302    384.82669   -574.28512    6193.1673    4466.4736    10659.641    10165.936   -1534.7295    4297.8258   -1669.2592    2101.2761    3067.0651    967.39159            0    6135.7328   -4432.3555   -46.167685     38.91837     38.91837     38.91837            0            0            0   0.73370568 
   29000    58965.547    382.23108   -560.29371    6151.3952    4404.2572    10555.652    10073.827   -1539.3332    4248.9835   -1721.7611    2054.6754    3104.4496    966.89335            0    6126.0183   -4431.4114   -46.153399    38.922385    38.922385    38.922385            0            0            0   0.73347865 
   30000     59856.52    379.02208   -1068.5763    6099.7515    4546.2693    10646.021    9713.2114   -1500.0816    4225.4866   -1708.0799    2114.8645    3178.8658    960.61888            0    6254.3492   -4433.4849     -45.4664    39.117446    39.117446    39.117446            0            0            0   0.72256072 
   31000    58264.248    387.69276    760.71777    6239.2921    4401.5767    10640.869    11287.269   -1540.1148    4209.5258   -1763.9065    2111.9381    3088.2664    965.27868            0    6165.4832   -4433.3174   -46.708926    38.767463    38.767463    38.767463            0            0            0   0.74230719 
   32000    57724.546    382.50086    463.98696    6155.7369    4433.2259    10588.963    10979.572   -1554.3723    4270.9425   -1714.3218    2114.6347    3106.9245    925.98845            0    6147.5477    -4430.892   -47.145637     38.64739     38.64739     38.64739            0            0            0   0.74924748 
   33000    57957.986    375.00079    192.65122    6035.0353    4362.2742     10397.31    10560.149   -1566.2942    4237.1837   -1759.4582    2136.1312    3026.9848    958.61635            0    6121.7324   -4430.3477   -46.955746    38.699418    38.699418    38.699418            0            0            0   0.74622969 
   34000    58928.872    386.78576   -329.24673    6224.6954    4404.3478    10629.043    10346.083   -1541.6629    4252.8811   -1719.3933    2069.6844    3105.0528     949.0039            0    6123.7411   -4430.6116   -46.182124    38.914314    38.914314    38.914314            0            0            0   0.73393515 
   35000    58971.016    386.48014    1075.5107    6219.7769     4579.328    10799.105    11724.078   -1516.5068    4240.0937   -1706.8281    2136.5656    3169.8161    979.77443            0    6286.1561    -4430.415   -46.149119    38.923588    38.923588    38.923588            0            0            0   0.73341063 
   36000    59380.377    379.28347    823.14362    6103.9582    4444.6491    10548.607    11261.451    -1505.749    4247.0162   -1689.1965    2051.6846    3071.7394    1010.4216            0    6133.8456   -4430.4636   -45.830973    39.013446    39.013446    39.013446            0            0            0   0.72835459 
   37000    58613.258    381.49909    292.91071    6139.6149    4581.7588    10721.374    10971.758   -1591.0943    4295.1172   -1726.5017    2112.5646    3194.4166    1001.2793            0    6308.2605   -4430.5247     -46.4308    38.844716    38.844716    38.844716            0            0            0   0.73788715 
   38000     58764.23    384.69354   -544.65042    6191.0245    4429.4435    10620.468    10153.694   -1537.2989    4323.8489   -1645.4142    2059.7351    3051.6731    963.44951            0    6074.8577   -4431.9642   -46.311514    38.878039    38.878039    38.878039            0            0            0   0.73599144 
   39000    58576.865     378.0721    668.58271     6084.463    4448.6268     10533.09    11104.249   -1593.6261     4281.385   -1742.5218    2087.2802    3101.3503    1002.5181            0    6191.1487   -4430.2807   -46.459647    38.836675    38.836675    38.836675            0            0            0    0.7383456 
   40000    58309.923    387.42074    284.71441    6234.9144    4455.6191    10690.533    10932.652   -1549.4443    4259.4792   -1722.8547     2091.915    3125.2388    961.31997            0    6178.4737   -4432.8896   -46.672338    38.777591    38.777591    38.777591            0            0            0   0.74172573 
   41000    59303.513    383.59178    591.68783    6173.2934    4436.4984    10609.792    11121.531   -1556.8139    4261.1248   -1726.4277    2114.5898    3098.8399    949.49637            0    6162.9261   -4430.7386   -45.890376    38.996606    38.996606    38.996606            0            0            0   0.72929863 
   42000    58929.853    381.37301   -699.98894    6137.5859    4552.1484    10689.734    10088.142   -1536.6073    4273.6302   -1694.9505    2154.2682    3158.4223    934.40839            0    6247.0989   -4431.9734   -46.181355     38.91453     38.91453     38.91453            0            0            0   0.73392293 
   43000    58127.005    383.24423    2262.8863    6167.7002    4341.3264    10509.027    12427.327   -1581.4573    4221.5829   -1792.4277    2105.1962    3092.2766    936.28128            0    6133.7541   -4432.5533    -46.81921       38.737       38.737       38.737            0            0            0   0.74405985 
   44000    58347.159     379.2178    236.81163    6102.9012    4300.6998    10403.601    10605.112   -1562.5652    4190.2392   -1804.8387    2130.4815     3039.704    935.35296            0    6105.5385   -4432.5126   -46.642553    38.785843    38.785843    38.785843            0            0            0   0.74125238 
   45000     59042.58    382.27679   -1275.0907    6152.1307    4436.4892     10588.62    9490.6707   -1521.4949    4239.3711   -1713.9961    2122.9896    3075.4588    952.03694            0    6150.4853   -4431.8722   -46.093184    38.939327    38.939327    38.939327            0            0            0   0.73252169 
   46000    57763.558    383.77969    721.32803    6176.3175    4272.3877    10448.705    11056.368   -1569.7336    4163.3742   -1837.3366    2083.7331     3095.653    930.33814            0    6109.7243   -4430.9772   -47.113796    38.656095    38.656095    38.656095            0            0            0   0.74874146 
   47000    58274.203     374.4326    397.06485    6025.8911    4423.5435    10449.435    10786.888   -1534.5807    4187.8143   -1779.2667    2139.9727    3129.9207    932.91676            0    6202.8102   -4432.5002   -46.700947    38.769671    38.769671    38.769671            0            0            0   0.74218038 
   48000     58107.49    386.79606     820.8445    6224.8611    4378.3871    10603.248    11298.863   -1507.4013    4170.1791   -1767.1905    2069.9059    3117.6259    958.04572            0    6145.5776   -4429.9683   -46.834934    38.732664    38.732664    38.732664            0            0            0   0.74430973 
   49000    58679.759    377.68092   -764.58118    6078.1676    4307.9674    10386.135    9731.8186   -1536.3566    4166.8713   -1801.2145    2128.5806    3042.1846    938.41671            0    6109.1819   -4431.7292   -46.378181    38.859401    38.859401    38.859401            0            0            0   0.73705092 
   50000    58171.873    379.25783   -768.03284    6103.5454    4359.0838    10462.629    9811.0478   -1594.5443    4224.9906    -1802.805    2097.3616    3109.4873    955.03981            0    6161.8888   -4433.2513   -46.783098    38.746964    38.746964    38.746964            0            0            0   0.74348595 
   50518    58991.937    379.85939   -762.99383    6113.2266    4302.8396    10416.066    9759.6345   -1538.9286    4222.0036   -1749.2053    2034.6631    3076.8079     940.5739            0    6052.0449   -4432.2802   -46.132753    38.928191    38.928191    38.928191            0            0            0   0.73315054 
Loop time of 252.632 on 48 procs for 50000 steps with 5400 atoms

Performance: 17.100 ns/day, 1.404 hours/ns, 197.916 timesteps/s
63.9% CPU use with 48 MPI tasks x 1 OpenMP threads

MPI task timing breakdown:
Section |  min time  |  avg time  |  max time  |%varavg| %total
---------------------------------------------------------------
Pair    | 83.614     | 96.818     | 110.27     |  69.6 | 38.32
Bond    | 4.0774     | 4.6145     | 5.0716     |   8.9 |  1.83
Kspace  | 26.39      | 43.213     | 57.485     | 112.5 | 17.11
Neigh   | 20.216     | 21.289     | 22.257     |  14.8 |  8.43
Comm    | 46.943     | 54.204     | 64.59      |  53.0 | 21.46
Output  | 0.060291   | 0.061384   | 0.071647   |   0.6 |  0.02
Modify  | 20.177     | 25.752     | 30.158     |  45.4 | 10.19
Other   |            | 6.68       |            |       |  2.64

Nlocal:    112.5 ave 130 max 74 min
Histogram: 1 0 0 2 5 6 11 7 10 6
Nghost:    6103.42 ave 6145 max 6054 min
Histogram: 3 3 3 7 7 3 7 7 4 4
Neighs:    72786.9 ave 90967 max 46483 min
Histogram: 1 0 2 4 8 9 11 7 2 4

Total # of neighbors = 3493773
Ave neighs/atom = 646.995
Ave special neighs/atom = 10.4444
Neighbor list builds = 6466
Dangerous builds = 0

unfix npt_density

fix reshape_box all deform 1 x final 0.0 37.4456 y final 0.0 37.4456 z final 0.0 37.4456 units box

run 100000
Ewald initialization ...
  using 12-bit tables for long-range coulomb (src/kspace.cpp:332)
  G vector (1/distance) = 0.141438
  estimated absolute RMS force accuracy = 0.0342845
  estimated relative force accuracy = 0.000103247
  KSpace vectors: actual max1d max3d = 128 4 364
                  kxmax kymax kzmax  = 4 4 4
Per MPI rank memory allocation (min/avg/max) = 22.51 | 22.56 | 22.88 Mbytes
Step Volume Temp Press KinEng PotEng TotEng Enthalpy E_vdwl E_coul E_pair E_bond E_angle E_dihed E_impro E_mol E_long E_tail Lx Ly Lz Xy Xz Yz Density 
   50518    58991.937    379.85939   -762.91221    6113.2266    4302.8428    10416.069    9759.7079   -1538.9286      4245.12   -1749.2021    2034.6631    3076.8079     940.5739            0    6052.0449   -4455.3936   -46.132753    38.928191    38.928191    38.928191            0            0            0   0.73315054 
   51000    58959.456    379.85939   -381.26228    6113.2266    4300.4569    10413.683     10085.85   -1536.5467    4245.2088   -1746.7348    2029.8099    3076.8079     940.5739            0    6047.1917   -4455.3969   -46.158168    38.921045    38.921045    38.921045            0            0            0   0.73355444 
   52000    58892.104    379.85939    414.10368    6113.2266    4296.2714    10409.498    10765.164   -1531.5599     4245.596   -1741.3677    2020.2574    3076.8079     940.5739            0    6037.6392   -4455.4038   -46.210956    38.906219    38.906219    38.906219            0            0            0   0.73439336 
   53000    58824.804    379.85939    1209.0785    6113.2266    4292.3419    10405.569    11442.836   -1526.5186    4245.4589   -1736.4705    2011.4306    3076.8079     940.5739            0    6028.8124   -4455.4108   -46.263825    38.891393    38.891393    38.891393            0            0            0   0.73523356 
   54000    58757.555    379.85939    2005.0167    6113.2266     4289.028    10402.255    12120.391   -1521.4234    4245.1579   -1731.6832    2003.3295    3076.8079     940.5739            0    6020.7112   -4455.4177   -46.316775    38.876567    38.876567    38.876567            0            0            0   0.73607505 
   55000    58690.358    379.85939    2803.3776    6113.2266    4286.7158    10399.942    12799.462   -1516.2781    4245.0828     -1726.62     1995.954    3076.8079     940.5739            0    6013.3358   -4455.4247   -46.369805    38.861741    38.861741    38.861741            0            0            0   0.73691781 
   56000    58623.212    379.85939    3603.7641    6113.2266    4285.2997    10398.526    13479.598   -1511.0772    4245.1225   -1721.3863    1989.3043    3076.8079     940.5739            0     6006.686   -4455.4316   -46.422916    38.846915    38.846915    38.846915            0            0            0   0.73776187 
   57000    58556.117    379.85939    4406.0784    6113.2266    4284.7521    10397.979    14160.686   -1505.8209    4245.2496   -1716.0098    1983.3802    3076.8079     940.5739            0     6000.762   -4455.4386   -46.476109    38.832089    38.832089    38.832089            0            0            0   0.73860721 
   58000    58489.073    379.85939    5209.1632    6113.2266    4284.7659    10397.993    14841.425   -1500.5095    4245.1573   -1710.7977    1978.1818    3076.8079     940.5739            0    5995.5636   -4455.4455   -46.529383    38.817263    38.817263    38.817263            0            0            0   0.73945385 
   59000    58422.081    379.85939    6014.5433    6113.2266    4285.7419    10398.969    15523.516   -1495.1458    4245.2493    -1705.349    1973.7091    3076.8079     940.5739            0    5991.0909   -4455.4524   -46.582738    38.802437    38.802437    38.802437            0            0            0   0.74030178 
   60000    58355.139    379.85939    6821.7953    6113.2266    4287.5669    10400.794    16206.481    -1489.729    4245.4115    -1699.777    1969.9621    3076.8079     940.5739            0    5987.3439   -4455.4594   -46.636175    38.787611    38.787611    38.787611            0            0            0   0.74115101 
   61000    58288.249    379.85939     7630.325    6113.2266    4290.0851    10403.312    16889.655   -1484.2545    4245.4834   -1694.2375    1966.9408    3076.8079     940.5739            0    5984.3226   -4455.4663   -46.689693    38.772786    38.772786    38.772786            0            0            0   0.74200154 
   62000     58221.41    379.85939    8440.1233    6113.2266    4293.2907    10406.517    17573.022   -1478.7265    4245.4634   -1688.7363    1964.6452    3076.8079     940.5739            0     5982.027   -4455.4733   -46.743294     38.75796     38.75796     38.75796            0            0            0   0.74285336 
   63000    58154.622    379.85939    9249.9777    6113.2266    4296.8661    10410.093    18255.235   -1473.1418    4245.0311   -1683.5909    1963.0752    3076.8079     940.5739            0     5980.457   -4455.4802   -46.796976    38.743134    38.743134    38.743134            0            0            0    0.7437065 
   64000    58087.885    379.85939    10064.886    6113.2266    4302.1233     10415.35    18941.841   -1467.5016    4245.4993   -1677.4895     1962.231    3076.8079     940.5739            0    5979.6127   -4455.4871   -46.850741    38.728308    38.728308    38.728308            0            0            0   0.74456094 
   65000    58021.199    379.85939    10877.036    6113.2266    4307.0081    10420.235    19624.162   -1461.8065    4244.8145   -1672.4861    1962.1124    3076.8079     940.5739            0    5979.4942   -4455.4941   -46.904588    38.713482    38.713482    38.713482            0            0            0   0.74541669 
   66000    57954.565    379.85939    11692.915    6113.2266    4313.2244    10426.451    20309.395    -1456.053    4244.6771   -1666.8769    1962.7195    3076.8079     940.5739            0    5980.1013    -4455.501   -46.958518    38.698656    38.698656    38.698656            0            0            0   0.74627375 
   67000    57887.981    379.85939    12509.538    6113.2266    4319.9883    10433.215    20994.228   -1450.2405    4244.3027   -1661.4458    1964.0523    3076.8079     940.5739            0    5981.4341   -4455.5079    -47.01253     38.68383     38.68383     38.68383            0            0            0   0.74713213 
   68000    57821.448    379.85939    13330.699    6113.2266    4328.2914    10441.518     21682.85   -1444.3689    4244.6827   -1655.2011    1966.1108    3076.8079     940.5739            0    5983.4926   -4455.5149   -47.066626    38.669004    38.669004    38.669004            0            0            0   0.74799182 
   69000    57754.967    379.85939    14150.533    6113.2266    4336.5966    10449.823    22368.774   -1438.4426    4244.2842   -1649.6802     1968.895    3076.8079     940.5739            0    5986.2767   -4455.5218   -47.120804    38.654178    38.654178    38.654178            0            0            0   0.74885283 
   70000    57688.536    379.85939    14974.136    6113.2266    4346.2357    10459.462    23057.624   -1432.4587    4244.4365   -1643.5509    1972.4048    3076.8079     940.5739            0    5989.7866   -4455.5287   -47.175066    38.639352    38.639352    38.639352            0            0            0   0.74971517 
   71000    57622.156    379.85939    15799.251    6113.2266    4356.6192    10469.846    23746.905   -1426.4132     4244.546   -1637.4029    1976.6404    3076.8079     940.5739            0    5994.0221   -4455.5357    -47.22941    38.624526    38.624526    38.624526            0            0            0   0.75057883 
   72000    57555.827    379.85939    16626.162    6113.2266     4367.819    10481.046    24436.925   -1420.3081    4244.6863   -1631.1643    1981.6016    3076.8079     940.5739            0    5998.9834   -4455.5426   -47.283839    38.609701    38.609701    38.609701            0            0            0   0.75144381 
   73000    57489.549    379.85939    17454.102    6113.2266    4379.6348    10492.861    25126.837   -1414.1426    4244.6566   -1625.0355    1987.2885    3076.8079     940.5739            0    6004.6703   -4455.5495   -47.338351    38.594875    38.594875    38.594875            0            0            0   0.75231013 
   74000    57423.322    379.85939    18283.097    6113.2266     4392.072    10505.299    25816.665   -1407.9172    4244.4628   -1619.0108    1993.7011    3076.8079     940.5739            0    6011.0829   -4455.5564   -47.392947    38.580049    38.580049    38.580049            0            0            0   0.75317778 
   75000    57357.146    379.85939    19114.431    6113.2266    4405.4636     10518.69    26507.819   -1401.6318    4244.4376   -1612.7576    2000.8394    3076.8079     940.5739            0    6018.2212   -4455.5634   -47.447627    38.565223    38.565223    38.565223            0            0            0   0.75404676 
   76000    57291.021    379.85939     19947.57    6113.2266    4419.6693    10532.896    27199.705   -1395.2855    4244.4399   -1606.4159    2008.7034    3076.8079     940.5739            0    6026.0851   -4455.5703   -47.502391    38.550397    38.550397    38.550397            0            0            0   0.75491708 
   77000    57224.947    379.85939        20782    6113.2266    4434.5547    10547.781    27891.756   -1388.8783    4244.3354   -1600.1201     2017.293    3076.8079     940.5739            0    6034.6748   -4455.5772   -47.557239    38.535571    38.535571    38.535571            0            0            0   0.75578874 
   78000    57158.923    379.85939    21618.354    6113.2266    4450.2843    10563.511    28584.663   -1382.4068     4244.285   -1593.7059    2026.6084    3076.8079     940.5739            0    6043.9902   -4455.5841   -47.612172    38.520745    38.520745    38.520745            0            0            0   0.75666174 
   79000     57092.95    379.85939     22456.32    6113.2266     4466.774    10580.001    29278.078   -1375.8754    4244.2093   -1587.2572    2036.6494    3076.8079     940.5739            0    6054.0312    -4455.591   -47.667189    38.505919    38.505919    38.505919            0            0            0   0.75753609 
   80000    57027.028    379.85939    23296.817    6113.2266    4484.2614    10597.488    29973.002   -1369.2795    4244.3409   -1580.5365    2047.4161    3076.8079     940.5739            0    6064.7979    -4455.598   -47.722291    38.491093    38.491093    38.491093            0            0            0   0.75841178 
   81000    56961.157    379.85939    24137.377    6113.2266    4502.1085    10615.335    30666.738   -1362.6196    4244.0427   -1574.1818    2058.9085    3076.8079     940.5739            0    6076.2903   -4455.6049   -47.777479    38.476267    38.476267    38.476267            0            0            0   0.75928883 
   82000    56895.337    379.85939    24979.787    6113.2266    4520.7748    10634.001    31361.233   -1355.8972    4243.7755   -1567.7336    2071.1266    3076.8079     940.5739            0    6088.5084   -4455.6118   -47.832751    38.461442    38.461442    38.461442            0            0            0   0.76016723 
   83000    56829.567    379.85939    25824.113    6113.2266    4540.2757    10653.502    32056.551   -1349.1123    4243.5545   -1561.1765    2084.0704    3076.8079     940.5739            0    6101.4522   -4455.6187   -47.888108    38.446616    38.446616    38.446616            0            0            0   0.76104698 
   84000    56763.848    379.85939    26671.643    6113.2266    4560.9414    10674.168    32754.087   -1342.2628    4243.7081   -1554.1803    2097.7399    3076.8079     940.5739            0    6115.1216   -4455.6256   -47.943551     38.43179     38.43179     38.43179            0            0            0   0.76192809 
   85000     56698.18    379.85939    27521.683    6113.2266    4582.5916    10695.818     33453.08   -1335.3482    4244.0555   -1546.9252     2112.135    3076.8079     940.5739            0    6129.5168   -4455.6325    -47.99908    38.416964    38.416964    38.416964            0            0            0   0.76281056 
   86000    56632.562    379.85939    28372.106    6113.2266    4604.6795    10717.906    34151.218   -1328.3686    4244.0499   -1539.9581    2127.2559    3076.8079     940.5739            0    6144.6376   -4455.6394   -48.054695    38.402138    38.402138    38.402138            0            0            0    0.7636944 
   87000    56566.995    379.85939    29223.933    6113.2266    4627.4662    10740.693    34849.608   -1321.3237    4243.9521   -1533.0179    2143.1024    3076.8079     940.5739            0    6160.4842   -4455.6464   -48.110395    38.387312    38.387312    38.387312            0            0            0    0.7645796 
   88000    56501.478    379.85939     30076.95    6113.2266    4650.8958    10764.122    35548.014   -1314.2134    4243.7062   -1526.1605    2159.6746    3076.8079     940.5739            0    6177.0564   -4455.6533   -48.166182    38.372486    38.372486    38.372486            0            0            0   0.76546617 
   89000    56436.013    379.85939    30933.162    6113.2266    4675.4814    10788.708    36248.598   -1307.0332    4243.8205   -1518.8729    2176.9725    3076.8079     940.5739            0    6194.3543   -4455.6602   -48.222054     38.35766     38.35766     38.35766            0            0            0   0.76635411 
   90000    56370.597    379.85939    31790.734    6113.2266    4700.7512    10813.978    36949.374    -1299.786    4243.8264   -1511.6267    2194.9961    3076.8079     940.5739            0    6212.3779   -4455.6671   -48.278014    38.342834    38.342834    38.342834            0            0            0   0.76724343 
   91000    56305.233    379.85939    32650.882    6113.2266    4727.0125    10840.239    37651.644   -1292.4761    4244.0355   -1504.1146    2213.7454    3076.8079     940.5739            0    6231.1271    -4455.674   -48.334059    38.328008    38.328008    38.328008            0            0            0   0.76813412 
   92000    56239.919    379.85939    33512.111    6113.2266    4753.8855    10867.112    38353.797   -1285.0964    4244.0607   -1496.7166    2233.2203    3076.8079     940.5739            0    6250.6021   -4455.6809   -48.390192    38.313182    38.313182    38.313182            0            0            0   0.76902619 
   93000    56174.655    379.85939    34374.807    6113.2266    4781.4678    10894.694    39056.245    -1277.646    4243.9989    -1489.335     2253.421    3076.8079     940.5739            0    6270.8027   -4455.6878   -48.446412    38.298357    38.298357    38.298357            0            0            0   0.76991964 
   94000    56109.442    379.85939    35239.712    6113.2266    4809.9464    10923.173    39759.782   -1270.1269     4244.039   -1481.7826    2274.3473    3076.8079     940.5739            0    6291.7291   -4455.6947   -48.502718    38.283531    38.283531    38.283531            0            0            0   0.77081448 
   95000    56044.279    379.85939    36106.089    6113.2266    4839.1306    10952.357    40463.608   -1262.5421    4243.9932   -1474.2505    2295.9993    3076.8079     940.5739            0    6313.3811   -4455.7016   -48.559113    38.268705    38.268705    38.268705            0            0            0   0.77171071 
   96000    55979.167    379.85939    36973.049    6113.2266    4868.7985    10982.025    41166.775   -1254.8832    4243.6315   -1466.9602     2318.377    3076.8079     940.5739            0    6335.7588   -4455.7085   -48.615594    38.253879    38.253879    38.253879            0            0            0   0.77260832 
   97000    55914.105    379.85939    37841.601    6113.2266    4899.2026    11012.429    41870.358   -1247.1542    4243.2101   -1459.6595    2341.4804    3076.8079     940.5739            0    6358.8622   -4455.7154   -48.672163    38.239053    38.239053    38.239053            0            0            0   0.77350733 
   98000    55849.094    379.85939    38711.784    6113.2266    4930.3519    11043.579    42574.395   -1239.3551    4242.7381   -1452.3393    2365.3095    3076.8079     940.5739            0    6382.6912   -4455.7223    -48.72882    38.224227    38.224227    38.224227            0            0            0   0.77440773 
   99000    55784.133    379.85939    39586.553    6113.2266    4962.9904    11076.217     43282.03   -1231.4861    4242.9596   -1444.2556    2389.8642    3076.8079     940.5739            0     6407.246   -4455.7292   -48.785565    38.209401    38.209401    38.209401            0            0            0   0.77530953 
  100000    55719.223    379.85939    40460.806    6113.2266    4995.8301    11109.057    43987.819   -1223.5432    4242.5829   -1436.6963    2415.1447    3076.8079     940.5739            0    6432.5264   -4455.7361   -48.842398    38.194575    38.194575    38.194575            0            0            0   0.77621273 
  101000    55654.363    379.85939    41337.546    6113.2266    5029.6277    11142.854    44694.961   -1215.5284    4242.3665   -1428.9049    2441.1508    3076.8079     940.5739            0    6458.5326    -4455.743   -48.899319    38.179749    38.179749    38.179749            0            0            0   0.77711734 
  102000    55589.553    379.85939     42215.72    6113.2266    5064.1147    11177.341    45402.327    -1207.443    4242.0432   -1421.1497    2467.8826    3076.8079     940.5739            0    6485.2644   -4455.7499   -48.956329    38.164923    38.164923    38.164923            0            0            0   0.77802335 
  103000    55524.794    379.85939    43097.583    6113.2266    5099.8583    11213.085    46112.308   -1199.2841    4242.1773   -1412.8636    2495.3401    3076.8079     940.5739            0    6512.7219   -4455.7568   -49.013428    38.150097    38.150097    38.150097            0            0            0   0.77893077 
  104000    55460.085    379.85939    43981.212    6113.2266    5136.3733      11249.6    46822.855   -1191.0511    4242.2829   -1404.5318    2523.5233    3076.8079     940.5739            0    6540.9051   -4455.7637   -49.070615    38.135272    38.135272    38.135272            0            0            0    0.7798396 
  105000    55395.426    379.85939    44868.284    6113.2266    5174.0779    11287.305    47535.739   -1182.7461    4242.7806   -1395.7361    2552.4322    3076.8079     940.5739            0     6569.814   -4455.7706   -49.127891    38.120446    38.120446    38.120446            0            0            0   0.78074984 
  106000    55330.818    379.85939    45754.482    6113.2266    5211.8901    11325.117    48246.386   -1174.3653    4242.5843   -1387.5584    2582.0668    3076.8079     940.5739            0    6599.4485   -4455.7774   -49.185257     38.10562     38.10562     38.10562            0            0            0   0.78166151 
  107000    55266.259    379.85939    46642.426    6113.2266    5250.4661    11363.693    48957.567   -1165.9087    4242.3504   -1379.3426     2612.427    3076.8079     940.5739            0    6629.8088   -4455.7843   -49.242711    38.090794    38.090794    38.090794            0            0            0   0.78257459 
  108000    55201.751    379.85939    47534.238    6113.2266    5290.3343    11403.561    49671.518    -1157.375    4242.6059   -1370.5604     2643.513    3076.8079     940.5739            0    6660.8947   -4455.7912   -49.300256    38.075968    38.075968    38.075968            0            0            0    0.7834891 
  109000    55137.294    379.85939    48426.115    6113.2266    5330.5433     11443.77     50384.22   -1148.7661    4242.4012    -1362.163    2675.3246    3076.8079     940.5739            0    6692.7063   -4455.7981    -49.35789    38.061142    38.061142    38.061142            0            0            0   0.78440503 
  110000    55072.886    379.85939    49321.299    6113.2266    5371.8995    11485.126    51099.084    -1140.083    4242.5439   -1353.3441    2707.8619    3076.8079     940.5739            0    6725.2437    -4455.805   -49.415614    38.046316    38.046316    38.046316            0            0            0   0.78532239 
  111000    55008.529    379.85939    50215.853    6113.2266     5413.424    11526.651    51811.965    -1131.319    4242.0482   -1345.0827    2741.1249    3076.8079     940.5739            0    6758.5067   -4455.8119   -49.473428     38.03149     38.03149     38.03149            0            0            0   0.78624118 
  112000    54944.221    379.85939    51114.032    6113.2266    5456.1713    11569.398    52527.333   -1122.4807    4241.9755    -1336.324    2775.1136    3076.8079     940.5739            0    6792.4953   -4455.8188   -49.531332    38.016664    38.016664    38.016664            0            0            0    0.7871614 
  113000    54879.964    379.85939    52014.803    6113.2266    5499.8842    11613.111    53244.094   -1113.5662    4242.0664   -1327.3255    2809.8279    3076.8079     940.5739            0    6827.2097   -4455.8256   -49.589326    38.001838    38.001838    38.001838            0            0            0   0.78808306 
  114000    54815.757    379.85939    52914.893    6113.2266    5543.7506    11656.977    53958.815   -1104.5691    4241.5025   -1318.8991     2845.268    3076.8079     940.5739            0    6862.6498   -4455.8325   -49.647412    37.987012    37.987012    37.987012            0            0            0   0.78900616 
  115000      54751.6    379.85939    53819.599    6113.2266     5589.082    11702.309     54677.04   -1095.4929    4241.5988   -1309.7335    2881.4337    3076.8079     940.5739            0    6898.8155   -4455.8394   -49.705587    37.972187    37.972187    37.972187            0            0            0   0.78993071 
  116000    54687.494    379.85939    54724.221    6113.2266    5634.7124    11747.939    55393.843    -1086.337    4241.1887   -1300.9945    2918.3252    3076.8079     940.5739            0    6935.7069   -4455.8463   -49.763854    37.957361    37.957361    37.957361            0            0            0   0.79085669 
  117000    54623.437    379.85939    55631.299    6113.2266    5681.2681    11794.495    56111.878   -1077.1039    4240.9011   -1292.0559    2955.9423    3076.8079     940.5739            0     6973.324   -4455.8531   -49.822212    37.942535    37.942535    37.942535            0            0            0   0.79178413 
  118000     54559.43    379.85939    56541.935    6113.2266    5729.0218    11842.248    56832.289   -1067.7881    4241.0031    -1282.645    2994.2851    3076.8079     940.5739            0    7011.6668     -4455.86   -49.880661    37.927709    37.927709    37.927709            0            0            0   0.79271301 
  119000    54495.473    379.85939    57455.548    6113.2266    5777.8267    11891.053    57554.458   -1058.3919    4241.3501   -1272.9087    3033.3536    3076.8079     940.5739            0    7050.7353   -4455.8669   -49.939202    37.912883    37.912883    37.912883            0            0            0   0.79364335 
  120000    54431.567    379.85939    58369.851    6113.2266    5827.1174    11940.344    58275.999   -1048.9146    4241.3762   -1263.4121    3073.1477    3076.8079     940.5739            0    7090.5295   -4455.8738   -49.997834    37.898057    37.898057    37.898057            0            0            0   0.79457515 
  121000     54367.71    379.85939    59286.253    6113.2266    5877.2402    11990.467    58998.376   -1039.3551    4241.4265   -1253.8091    3113.6676    3076.8079     940.5739            0    7131.0494   -4455.8806   -50.056559    37.883231    37.883231    37.883231            0            0            0   0.79550841 
  122000    54303.903    379.85939    60204.134    6113.2266    5928.0435     12041.27    59720.941   -1029.7101    4241.3462   -1244.2514    3154.9131    3076.8079     940.5739            0    7172.2949   -4455.8875   -50.115375    37.868405    37.868405    37.868405            0            0            0   0.79644312 
  123000    54240.146    379.85939    61123.293    6113.2266    5979.4739      12092.7     60443.48   -1019.9836    4241.0856   -1234.7923    3196.8844    3076.8079     940.5739            0    7214.2661   -4455.8944   -50.174283    37.853579    37.853579    37.853579            0            0            0    0.7973793 
  124000     54176.44    379.85939    62045.227    6113.2266    6031.8996    12145.126    61167.544   -1010.1722    4241.0099   -1225.0635    3239.5813    3076.8079     940.5739            0    7256.9631   -4455.9012   -50.233284    37.838753    37.838753    37.838753            0            0            0   0.79831696 
  125000    54112.783    379.85939    62968.029    6113.2266    6084.8499    12198.077     61891.15   -1000.2779    4240.6502   -1215.5358    3283.0039    3076.8079     940.5739            0    7300.3857   -4455.9081   -50.292377    37.823927    37.823927    37.823927            0            0            0   0.79925608 
  126000    54049.176    379.85939    63894.007    6113.2266    6138.8908    12252.117    62616.683   -990.29773    4240.5696   -1205.6431    3327.1522    3076.8079     940.5739            0     7344.534    -4455.915   -50.351563    37.809102    37.809102    37.809102            0            0            0   0.80019667 
  127000    53985.618    379.85939    64821.271    6113.2266     6193.558    12306.785    63342.183   -980.22898    4240.3008     -1195.85    3372.0262    3076.8079     940.5739            0    7389.4079   -4455.9218   -50.410842    37.794276    37.794276    37.794276            0            0            0   0.80113874 
  128000    53922.111    379.85939    65751.215    6113.2266    6249.1906    12362.417    64069.086   -970.07519    4240.1868   -1185.8171    3417.6258    3076.8079     940.5739            0    7435.0076   -4455.9287   -50.470214     37.77945     37.77945     37.77945            0            0            0   0.80208229 
  129000    53858.653    379.85939    66682.365    6113.2266    6305.4266    12418.653    64795.865   -959.83468    4239.8639   -1175.9064    3463.9512    3076.8079     940.5739            0     7481.333   -4455.9355   -50.529679    37.764624    37.764624    37.764624            0            0            0   0.80302732 
  130000    53795.246    379.85939    67614.808    6113.2266     6362.287    12475.514    65522.608   -949.50783    4239.3533   -1166.0969    3511.0022    3076.8079     940.5739            0     7528.384   -4455.9424   -50.589238    37.749798    37.749798    37.749798            0            0            0   0.80397384 
  131000    53731.888    379.85939    68550.125    6113.2266    6420.1549    12533.382    66250.937   -939.09543    4239.0388   -1156.0058     3558.779    3076.8079     940.5739            0    7576.1607   -4455.9493    -50.64889    37.734972    37.734972    37.734972            0            0            0   0.80492185 
  132000    53668.579    379.85939    69487.984    6113.2266    6478.9479    12592.175    66980.502   -928.59361    4238.8345   -1145.7152    3607.2814    3076.8079     940.5739            0    7624.6631   -4455.9561   -50.708636    37.720146    37.720146    37.720146            0            0            0   0.80587134 
  133000    53605.321    379.85939    70429.676    6113.2266    6538.9791    12652.206    67712.621   -918.00097    4239.0518   -1134.9121    3656.5095    3076.8079     940.5739            0    7673.8912    -4455.963   -50.768476     37.70532     37.70532     37.70532            0            0            0   0.80682234 
  134000    53542.112    379.85939    71374.082    6113.2266     6599.972    12713.199    68446.135   -907.31998    4239.4168    -1123.873    3706.4632    3076.8079     940.5739            0     7723.845   -4455.9698   -50.828411    37.690494    37.690494    37.690494            0            0            0   0.80777482 
  135000    53478.953    379.85939    72318.887    6113.2266     6661.367    12774.594    69178.674   -896.54911    4239.3683   -1113.1575    3757.1427    3076.8079     940.5739            0    7774.5245   -4455.9767   -50.888439    37.675668    37.675668    37.675668            0            0            0   0.80872881 
  136000    53415.844    379.85939    73265.823    6113.2266    6723.5818    12836.808    69912.005   -885.68492    4239.3206   -1102.3478    3808.5479    3076.8079     940.5739            0    7825.9296   -4455.9835   -50.948562    37.660843    37.660843    37.660843            0            0            0    0.8096843 
  137000    53352.784    379.85939    74214.528    6113.2266    6786.5276    12899.754    70645.754   -874.73017    4239.1877   -1091.5328    3860.6787    3076.8079     940.5739            0    7878.0605   -4455.9904   -51.008781    37.646017    37.646017    37.646017            0            0            0    0.8106413 
  138000    53289.774    379.85939    75165.247    6113.2266    6850.2625    12963.489    71380.168   -863.68243    4239.0252   -1080.6544    3913.5352    3076.8079     940.5739            0     7930.917   -4455.9972   -51.069093    37.631191    37.631191    37.631191            0            0            0    0.8115998 
  139000    53226.814    379.85939    76117.208    6113.2266    6914.5983    13027.825    72114.454   -852.54282     4238.646   -1069.9009    3967.1174    3076.8079     940.5739            0    7984.4992   -4456.0041   -51.129502    37.616365    37.616365    37.616365            0            0            0   0.81255982 
  140000    53163.903    379.85939    77071.487    6113.2266    6979.7928    13093.019    72849.703   -841.31187    4238.3085   -1059.0143    4021.4253    3076.8079     940.5739            0    8038.8071   -4456.0109   -51.190005    37.601539    37.601539    37.601539            0            0            0   0.81352135 
  141000    53101.042    379.85939    78028.183    6113.2266    7045.8702    13159.097    73586.012   -829.98468    4238.0319   -1047.9705    4076.4589    3076.8079     940.5739            0    8093.8407   -4456.0177   -51.250604    37.586713    37.586713    37.586713            0            0            0    0.8144844 
  142000     53038.23    379.85939     78987.42    6113.2266    7112.8565    13226.083    74323.499    -818.5647    4237.8459   -1036.7434    4132.2182    3076.8079     940.5739            0       8149.6   -4456.0246   -51.311298    37.571887    37.571887    37.571887            0            0            0   0.81544897 
  143000    52975.468    379.85939    79947.611    6113.2266    7180.3722    13293.599    75060.553   -807.04706    4237.3657   -1025.7127    4188.7032    3076.8079     940.5739            0    8206.0849   -4456.0314   -51.372089    37.557061    37.557061    37.557061            0            0            0   0.81641506 
  144000    52912.756    379.85939    80913.224    6113.2266    7249.4844    13362.711    75801.687   -795.43189     4237.659   -1013.8112    4245.9138    3076.8079     940.5739            0    8263.2956   -4456.0383   -51.432975    37.542235    37.542235    37.542235            0            0            0   0.81738268 
  145000    52850.093    379.85939    81879.166    6113.2266    7318.9719    13432.199    76541.744   -783.72339    4237.5085     -1002.26    4303.8501    3076.8079     940.5739            0    8321.2319   -4456.0451   -51.493958    37.527409    37.527409    37.527409            0            0            0   0.81835183 
  146000    52787.479    379.85939    82846.139    6113.2266     7389.001    13502.228    77281.431    -771.9183    4237.0773   -990.89296    4362.5122    3076.8079     940.5739            0    8379.8939   -4456.0519   -51.555037    37.512583    37.512583    37.512583            0            0            0   0.81932252 
  147000    52724.915    379.85939    83816.492    6113.2266    7460.1324    13573.359    78023.112   -760.01741     4236.927   -979.14921    4421.8999    3076.8079     940.5739            0    8439.2816   -4456.0588   -51.616213    37.497758    37.497758    37.497758            0            0            0   0.82029473 
  148000    52662.401    379.85939    84788.717    6113.2266    7532.0055    13645.232    78765.265   -748.01567    4236.6918   -967.38948    4482.0133    3076.8079     940.5739            0     8499.395   -4456.0656   -51.677486    37.482932    37.482932    37.482932            0            0            0   0.82126849 
  149000    52599.935    379.85939     85764.37    6113.2266    7604.9884    13718.215    79509.444    -735.9145    4236.7412   -955.24572    4542.8523    3076.8079     940.5739            0    8560.2341   -4456.0724   -51.738856    37.468106    37.468106    37.468106            0            0            0   0.82224379 
  150000     52537.52    379.85939    86739.798    6113.2266    7678.2115    13791.438    80251.978   -723.71358    4236.2055   -943.58737    4604.4171    3076.8079     940.5739            0    8621.7989   -4456.0793   -51.800322     37.45328     37.45328     37.45328            0            0            0   0.82322063 
  150518    52505.208    379.85939    87246.066    6113.2266    7716.4926    13829.719    80637.051   -717.35402    4235.9547   -937.48215     4636.593    3076.8079     940.5739            0    8653.9747   -4456.0828   -51.832201      37.4456      37.4456      37.4456            0            0            0   0.82372725 
Loop time of 410.473 on 48 procs for 100000 steps with 5400 atoms

Performance: 21.049 ns/day, 1.140 hours/ns, 243.621 timesteps/s
67.3% CPU use with 48 MPI tasks x 1 OpenMP threads

MPI task timing breakdown:
Section |  min time  |  avg time  |  max time  |%varavg| %total
---------------------------------------------------------------
Pair    | 128.03     | 199.97     | 246.04     | 167.9 | 48.72
Bond    | 4.9897     | 8.2159     | 10.292     |  35.5 |  2.00
Kspace  | 38.256     | 83.249     | 154.91     | 265.8 | 20.28
Neigh   | 0.035613   | 0.037716   | 0.039779   |   0.7 |  0.01
Comm    | 82.658     | 96.091     | 113.86     |  70.1 | 23.41
Output  | 0.11542    | 0.12688    | 0.14134    |   1.3 |  0.03
Modify  | 0.54251    | 0.65372    | 0.94084    |  12.7 |  0.16
Other   |            | 22.12      |            |       |  5.39

Nlocal:    112.5 ave 132 max 73 min
Histogram: 1 0 0 3 6 5 10 8 10 5
Nghost:    6648.21 ave 6708 max 6588 min
Histogram: 4 2 5 2 10 9 5 3 5 3
Neighs:    81522.2 ave 96687 max 53168 min
Histogram: 1 0 1 4 2 10 9 10 6 5

Total # of neighbors = 3913068
Ave neighs/atom = 724.642
Ave special neighs/atom = 10.4444
Neighbor list builds = 11
Dangerous builds = 0
# >>>>>>>>>  Equilibration run <<<<<<<<<<<<<<<<<<<<<<<<<<<<<<<<<<

fix             NVT_equib all nvt temp ${simulationTemp} ${simulationTemp} 100
fix             NVT_equib all nvt temp 383 ${simulationTemp} 100
fix             NVT_equib all nvt temp 383 383 100

print           "Step Density Temperature Pressure KinEng PotEng TotEng" file Properties_equib_383k.txt
Step Density Temperature Pressure KinEng PotEng TotEng
fix             PRINT_equib all print ${printfreq} "$(v_step) $(v_density) $(v_temp) $(v_press) $(v_pe) $(v_ke) $(v_etotal) $(v_enthalpy)" append Properties_equib_383k.txt title ""
fix             PRINT_equib all print 1000 "$(v_step) $(v_density) $(v_temp) $(v_press) $(v_pe) $(v_ke) $(v_etotal) $(v_enthalpy)" append Properties_equib_383k.txt title ""
# The 'print' and fix print' commands as used above will create a file named 'Properties_equib.txt' which allows you to quickly make plots to test for equilibration


run             ${NVT_equib}
run             100000
Ewald initialization ...
  using 12-bit tables for long-range coulomb (src/kspace.cpp:332)
  G vector (1/distance) = 0.142485
  estimated absolute RMS force accuracy = 0.0338118
  estimated relative force accuracy = 0.000101823
  KSpace vectors: actual max1d max3d = 128 4 364
                  kxmax kymax kzmax  = 4 4 4
Per MPI rank memory allocation (min/avg/max) = 22.52 | 22.56 | 22.89 Mbytes
Step Volume Temp Press KinEng PotEng TotEng Enthalpy E_vdwl E_coul E_pair E_bond E_angle E_dihed E_impro E_mol E_long E_tail Lx Ly Lz Xy Xz Yz Density 
  150518    52505.208    379.85939     87247.41    6113.2266    7716.6761    13829.903    80638.264   -717.34163    4268.9096   -937.36091    4636.6553    3076.8079     940.5739            0     8654.037   -4488.9289   -51.832201      37.4456      37.4456      37.4456            0            0            0   0.82372725 
151000 0.82372724821372100834 376.84756723582398763 1674.699350837169959 4228.8758913391902752 6064.7561739510801999 10293.632065290299579 11576.007301220399313
  151000    52505.208    376.84757    1674.6994    6064.7562    4228.8759    10293.632    11576.007   -1752.6278    4182.0972   -2059.8304     2259.651    3011.2928    1017.7625            0    6288.7063   -4489.2998   -51.832201      37.4456      37.4456      37.4456            0            0            0   0.82372725 
152000 0.82372724821372100834 382.18895325919197603 1859.8039895041899854 4196.9706550461596635 6150.7172008466095576 10347.687855892800144 11771.804118093599755
  152000    52505.208    382.18895     1859.804    6150.7172    4196.9707    10347.688    11771.804    -1762.125     4231.019   -2018.4379    2130.8311    3121.3261    963.25134            0    6215.4085   -4487.3319   -51.832201      37.4456      37.4456      37.4456            0            0            0   0.82372725 
153000 0.82372724821372100834 381.03056702910600961 2188.0810407923599996 4075.2399824438098221 6132.0748354672596179 10207.314817911099453 11882.804176354900846
  153000    52505.208    381.03057     2188.081    6132.0748      4075.24    10207.315    11882.804   -1779.3766    4263.1873    -2004.475    2057.5206    3055.7109    966.48348            0     6079.715   -4488.2857   -51.832201      37.4456      37.4456      37.4456            0            0            0   0.82372725 
154000 0.82372724821372100834 385.04034503277301837 736.50225075793105134 4129.4706176113204492 6196.6057705673101736 10326.07638817860061 10890.04164385670083
  154000    52505.208    385.04035    736.50225    6196.6058    4129.4706    10326.076    10890.042   -1803.1223    4258.6156   -2033.0053    2103.1114    3096.8009    962.56364            0    6162.4759   -4488.4986   -51.832201      37.4456      37.4456      37.4456            0            0            0   0.82372725 
155000 0.82372724821372100834 383.33921867308902165 2586.8849504238000918 4040.6623294761297984 6169.2288747358297769 10209.891204211999138 12190.758514494000337
  155000    52505.208    383.33922     2586.885    6169.2289    4040.6623    10209.891    12190.759   -1778.9467    4203.0086   -2066.0385    2078.5785    3083.9257    944.19663            0    6106.7009   -4490.1004   -51.832201      37.4456      37.4456      37.4456            0            0            0   0.82372725 
156000 0.82372724821372100834 385.6694445294889988 4338.2479487247101133 4274.1626715418697131 6206.7301162934199965 10480.892787835300624 13802.839341399299883
  156000    52505.208    385.66944    4338.2479    6206.7301    4274.1627    10480.893    13802.839   -1758.0346    4213.5727   -2033.9633    2169.0237    3173.0075    966.09487            0     6308.126   -4489.5015   -51.832201      37.4456      37.4456      37.4456            0            0            0   0.82372725 
157000 0.82372724821372100834 374.88647905239201918 594.31929216023502249 4142.0568996619504105 6033.1956102054500661 10175.252509867399567 10630.343354753000312
  157000    52505.208    374.88648    594.31929    6033.1956    4142.0569    10175.253    10630.343   -1831.2174     4223.444   -2097.1948    2181.3148    3111.6775    946.25932            0    6239.2517   -4489.4214   -51.832201      37.4456      37.4456      37.4456            0            0            0   0.82372725 
158000 0.82372724821372100834 376.09793807362200369 1449.8784268541799065 4068.5794928069399248 6052.6920968947097208 10121.271589701700577 11231.493665549300204
  158000    52505.208    376.09794    1449.8784    6052.6921    4068.5795    10121.272    11231.494    -1868.207    4251.3285   -2105.6159    2118.4522    3091.8516    963.89161            0    6174.1954   -4488.7374   -51.832201      37.4456      37.4456      37.4456            0            0            0   0.82372725 
159000 0.82372724821372100834 379.08611260867400006 959.40274245578495993 4032.608731586130034 6100.78196541430043 10133.390697000400905 10868.038571315200898
  159000    52505.208    379.08611    959.40274     6100.782    4032.6087    10133.391    10868.039   -1792.3884    4231.0615   -2051.6548    2072.8831    3074.1964    937.18407            0    6084.2636    -4490.328   -51.832201      37.4456      37.4456      37.4456            0            0            0   0.82372725 
160000 0.82372724821372100834 384.90630665453898018 -207.57917347795000751 4082.1334746909801652 6194.4486382076702284 10276.582112898600826 10117.631557725899256
  160000    52505.208    384.90631   -207.57917    6194.4486    4082.1335    10276.582    10117.632   -1810.7378     4242.701   -2057.4196    2118.2377    3086.6401    934.67528            0     6139.553   -4489.3827   -51.832201      37.4456      37.4456      37.4456            0            0            0   0.82372725 
161000 0.82372724821372100834 383.40805609503200913 1925.9680663813398951 3916.5230320808400393 6170.3367024519202459 10086.859734532799848 11561.640119612100534
  161000    52505.208    383.40806    1925.9681    6170.3367     3916.523     10086.86     11561.64   -1815.7167    4223.2795    -2081.418    2107.5247    2947.2706    943.14564            0     5997.941   -4488.9807   -51.832201      37.4456      37.4456      37.4456            0            0            0   0.82372725 
162000 0.82372724821372100834 382.09222950478397252 602.74340353985894581 4051.8946915899800842 6149.1605874100096116 10201.055279000000155 10662.596757435099789
  162000    52505.208    382.09223     602.7434    6149.1606    4051.8947    10201.055    10662.597   -1805.6904    4190.5901   -2102.7363     2103.174    3091.1781    960.27887            0     6154.631    -4487.636   -51.832201      37.4456      37.4456      37.4456            0            0            0   0.82372725 
163000 0.82372724821372100834 384.86113156458600315 1435.9158249064100801 3956.620428925590204 6193.7216177104601229 10150.342046636000305 11249.872475079699143
  163000    52505.208    384.86113    1435.9158    6193.7216    3956.6204    10150.342    11249.872   -1835.3054    4213.6072   -2109.7079    2113.9095    3021.1138    931.30502            0    6066.3284   -4488.0098   -51.832201      37.4456      37.4456      37.4456            0            0            0   0.82372725 
164000 0.82372724821372100834 380.56816691470402247 1271.9423309011499441 4003.7603624471998955 6124.6332484902495708 10128.393610937500853 11102.36386169529942
  164000    52505.208    380.56817    1271.9423    6124.6332    4003.7604    10128.394    11102.364   -1804.2086    4209.2221   -2081.4352    2074.3206    3080.2963    930.57861            0    6085.1956   -4486.4487   -51.832201      37.4456      37.4456      37.4456            0            0            0   0.82372725 
165000 0.82372724821372100834 387.76428433020197417 2571.6196055343298212 3959.4910185367398299 6240.4431974418703248 10199.934215978599241 12169.112323512499643
  165000    52505.208    387.76428    2571.6196    6240.4432     3959.491    10199.934    12169.112   -1813.3346    4207.0642   -2095.0039    2120.0141     3001.675    932.80585            0    6054.4949   -4488.7335   -51.832201      37.4456      37.4456      37.4456            0            0            0   0.82372725 
166000 0.82372724821372100834 381.4798172548090065 1988.9369068060500467 4148.2910457240395772 6139.304796111469841 10287.595841835500323 11810.593646689600064
  166000    52505.208    381.47982    1988.9369    6139.3048     4148.291    10287.596    11810.594   -1806.8242    4198.3638   -2096.5591    2118.4731     3162.609     963.7681            0    6244.8502   -4488.0988   -51.832201      37.4456      37.4456      37.4456            0            0            0   0.82372725 
167000 0.82372724821372100834 384.73035133995000479 -48.338373609876597925 3976.1507386621401565 6191.6169200986196302 10167.767658760800259 10130.753293626199593
  167000    52505.208    384.73035   -48.338374    6191.6169    3976.1507    10167.768    10130.753   -1848.1049    4204.4475   -2130.5551    2132.8794     3031.475    942.35143            0    6106.7059   -4486.8977   -51.832201      37.4456      37.4456      37.4456            0            0            0   0.82372725 
168000 0.82372724821372100834 385.36904401906798512 2466.0331010897298256 4090.718097465899973 6201.8956526836500416 10292.613750149599582 12180.940618038299363
  168000    52505.208    385.36904    2466.0331    6201.8957    4090.7181    10292.614    12180.941   -1799.5689    4185.6593   -2098.9923    2123.7675     3091.368    974.57497            0    6189.7104   -4485.0828   -51.832201      37.4456      37.4456      37.4456            0            0            0   0.82372725 
169000 0.82372724821372100834 379.92432180675001518 576.22599370670502594 4075.854573793380041 6114.2715958406897698 10190.126169634100734 10631.362349883000206
  169000    52505.208    379.92432    576.22599    6114.2716    4075.8546    10190.126    10631.362   -1808.6933    4179.4953   -2118.8747    2120.0116    3128.5207    946.19686            0    6194.7292   -4489.6766   -51.832201      37.4456      37.4456      37.4456            0            0            0   0.82372725 
170000 0.82372724821372100834 385.43874366091699812 2552.852667171180201 4010.4419717641499119 6203.0173564439501206 10213.459328208100487 12168.266941719199167
  170000    52505.208    385.43874    2552.8527    6203.0174     4010.442    10213.459    12168.267   -1805.6606    4197.6843   -2097.5413    2058.8243    3095.2583    953.90057            0    6107.9832   -4489.5649   -51.832201      37.4456      37.4456      37.4456            0            0            0   0.82372725 
171000 0.82372724821372100834 375.22975674419700454 310.87723296179001409 4043.0637360904102025 6038.7201131656802318 10081.783849256100439 10319.833302589600862
  171000    52505.208    375.22976    310.87723    6038.7201    4043.0637    10081.784    10319.833   -1831.8674    4204.5195   -2116.8114     2110.907    3094.0178    954.95037            0    6159.8752   -4489.4636   -51.832201      37.4456      37.4456      37.4456            0            0            0   0.82372725 
172000 0.82372724821372100834 377.40119648666097874 1979.1407784512000489 3881.0051952386402263 6073.665947315739686 9954.6711425543799123 11470.167712990500149
  172000    52505.208     377.4012    1979.1408    6073.6659    3881.0052    9954.6711    11470.168   -1821.0725    4208.5578   -2101.6005    1999.8735    3074.6376    908.09463            0    5982.6057   -4489.0857   -51.832201      37.4456      37.4456      37.4456            0            0            0   0.82372725 
173000 0.82372724821372100834 383.02437347523897415 1578.2102920810400519 4018.2332962767000026 6164.1619470878604261 10182.395243364600901 11390.885468576099811
  173000    52505.208    383.02437    1578.2103    6164.1619    4018.2333    10182.395    11390.885    -1827.187    4177.6363   -2137.6582      2105.73    3128.9715    921.19005            0    6155.8915   -4488.1076   -51.832201      37.4456      37.4456      37.4456            0            0            0   0.82372725 
174000 0.82372724821372100834 380.7524687348170005 1706.0427790912999626 3975.5540742540301835 6127.5992901967301805 10103.153364450799927 11409.529347847699682
  174000    52505.208    380.75247    1706.0428    6127.5993    3975.5541    10103.153    11409.529   -1829.0195    4199.8151    -2118.186    2094.7699    3079.5326    919.43757            0      6093.74   -4488.9816   -51.832201      37.4456      37.4456      37.4456            0            0            0   0.82372725 
175000 0.82372724821372100834 389.26502790678500787 2478.6724742105898258 4167.7760790632200951 6264.5952543023104226 10432.371333365499595 12330.376606563100722
  175000    52505.208    389.26503    2478.6725    6264.5953    4167.7761    10432.371    12330.377   -1735.0111    4138.2683   -2085.3581    2182.5112    3121.0244    949.59856            0    6253.1342   -4488.6153   -51.832201      37.4456      37.4456      37.4456            0            0            0   0.82372725 
176000 0.82372724821372100834 376.722887307849021 672.7336211544110256 4119.0552425376799874 6062.7496508136100601 10181.804893351300052 10696.940303008399496
  176000    52505.208    376.72289    672.73362    6062.7497    4119.0552    10181.805     10696.94   -1802.1659    4175.9274   -2115.6555    2109.5972    3196.6267    928.48694            0    6234.7108   -4489.4171   -51.832201      37.4456      37.4456      37.4456            0            0            0   0.82372725 
177000 0.82372724821372100834 383.26774232666099351 1886.0364259185200808 4051.558399718579949 6168.0785777696901278 10219.636977488300545 11663.84032386870058
  177000    52505.208    383.26774    1886.0364    6168.0786    4051.5584    10219.637     11663.84   -1840.6009    4217.2314   -2112.0947      2144.13    3085.9144    933.60876            0    6163.6531   -4488.7252   -51.832201      37.4456      37.4456      37.4456            0            0            0   0.82372725 
178000 0.82372724821372100834 375.42799381602202402 780.20716679273095906 3950.0458343660798164 6041.9104203609203978 9991.9562547269997594 10589.387876761200459
  178000    52505.208    375.42799    780.20717    6041.9104    3950.0458    9991.9563    10589.388   -1826.9458    4187.0815   -2128.6287    2066.6225    3086.8941     925.1579            0    6078.6745   -4488.7644   -51.832201      37.4456      37.4456      37.4456            0            0            0   0.82372725 
179000 0.82372724821372100834 377.9721271857089846 2765.4525874272999317 4044.9412885315600761 6082.8541596938703151 10127.795448225400833 12245.398176430400781
  179000    52505.208    377.97213    2765.4526    6082.8542    4044.9413    10127.795    12245.398   -1773.7944    4158.5256   -2105.1376    2141.3358    3081.5339    927.20919            0    6150.0789   -4489.8688   -51.832201      37.4456      37.4456      37.4456            0            0            0   0.82372725 
180000 0.82372724821372100834 380.06717473764399529 624.81765448164799182 4069.9457229108497813 6116.5705842644701988 10186.516307175299517 10664.960803304600631
  180000    52505.208    380.06717    624.81765    6116.5706    4069.9457    10186.516    10664.961   -1828.1077    4169.8243   -2144.2488    2122.0423    3127.5614    964.59078            0    6214.1945   -4485.9654   -51.832201      37.4456      37.4456      37.4456            0            0            0   0.82372725 
181000 0.82372724821372100834 385.23321183620402053 126.5772258336569962 3850.0464676570800293 6199.7096519202896161 10049.756119577399659 10146.680680849000055
  181000    52505.208    385.23321    126.57723    6199.7097    3850.0465    10049.756    10146.681   -1839.5004    4154.8369   -2171.1623    2083.5337    2967.3787    970.29629            0    6021.2087   -4486.4988   -51.832201      37.4456      37.4456      37.4456            0            0            0   0.82372725 
182000 0.82372724821372100834 386.55877602143999638 1789.8721929484700013 4002.4163845383100124 6221.042477909720219 10223.458862448000218 11594.025928452900189
  182000    52505.208    386.55878    1789.8722    6221.0425    4002.4164    10223.459    11594.026   -1802.6495    4160.2765   -2128.8864    2107.1782    3083.8615    940.26308            0    6131.3028   -4486.5134   -51.832201      37.4456      37.4456      37.4456            0            0            0   0.82372725 
183000 0.82372724821372100834 381.90906700190600986 1219.0078435851798986 4000.4809360392300732 6146.2128811840802882 10146.693817223300357 11080.130299560800267
  183000    52505.208    381.90907    1219.0078    6146.2129    4000.4809    10146.694     11080.13   -1811.9015    4185.9303   -2115.2218     2066.487    3096.0413    953.17448            0    6115.7027   -4489.2506   -51.832201      37.4456      37.4456      37.4456            0            0            0   0.82372725 
184000 0.82372724821372100834 383.07070632276901279 2190.0661870722701678 4000.1087594068198996 6164.9075998332700692 10165.016359240100428 11842.025812874600888
  184000    52505.208    383.07071    2190.0662    6164.9076    4000.1088    10165.016    11842.026   -1819.5714    4188.9648   -2118.6067    2108.2484    3076.4554    934.01175            0    6118.7155   -4488.0002   -51.832201      37.4456      37.4456      37.4456            0            0            0   0.82372725 
185000 0.82372724821372100834 372.76570136557000978 2196.5370205806898412 4029.8516130720799993 5999.0651004503297372 10028.916713522399732 11710.88110825900003
  185000    52505.208     372.7657     2196.537    5999.0651    4029.8516    10028.917    11710.881   -1770.1575    4195.0687   -2063.7732    2094.2283    3068.9496    930.44699            0    6093.6248   -4488.6844   -51.832201      37.4456      37.4456      37.4456            0            0            0   0.82372725 
186000 0.82372724821372100834 388.56626117001502507 2046.975992957050039 4000.6447333998598879 6253.3497262707496702 10253.994459670599099 11821.434800887400343
  186000    52505.208    388.56626     2046.976    6253.3497    4000.6447    10253.994    11821.435   -1815.8386    4196.7774   -2107.7149     2056.847    3090.3335    961.17919            0    6108.3597   -4488.6537   -51.832201      37.4456      37.4456      37.4456            0            0            0   0.82372725 
187000 0.82372724821372100834 378.02700671155599821 847.41635197924995282 4199.240421330369827 6083.7373574962302882 10282.977778826600115 10931.873799331600821
[...]
253000 0.82372724821372100834 384.3443656724790003 556.57557922293699448 3940.9190032130200052 6185.4051008820997595 10126.324104095099756 10552.513282088299093
  253000    52505.208    384.34437    556.57558    6185.4051     3940.919    10126.324    10552.513   -1819.6933    4087.4976   -2220.8721    2138.9039    3080.9355    941.95176            0    6161.7911   -4488.6764   -51.832201      37.4456      37.4456      37.4456            0            0            0   0.82372725 
254000 0.82372724821372100834 388.30543601062902326 732.82748396090505594 3934.9734509217701088 6249.1521643564801707 10184.125615278300756 10745.276974876400345
254000 0.82372724821372100834 388.30543601062902326 732.82748396090505594 3934.9734509217701088 6249.1521643564801707 10184.125615278300756 10745.276974876400345
  254000    52505.208    388.30544    732.82748    6249.1522    3934.9735    10184.126    10745.277   -1787.7872    4083.2699   -2191.7593    2066.8159     3108.244    951.67293            0    6126.7328    -4487.242   -51.832201      37.4456      37.4456      37.4456            0            0            0   0.82372725 
255000 0.82372724821372100834 383.8453381580640098 1096.4564653962399916 3925.7872950143901107 6177.3740547452798637 10103.161349759700897 10942.756001657500747
255000 0.82372724821372100834 383.8453381580640098 1096.4564653962399916 3925.7872950143901107 6177.3740547452798637 10103.161349759700897 10942.756001657500747
  255000    52505.208    383.84534    1096.4565    6177.3741    3925.7873    10103.161    10942.756   -1796.1622    4091.6734   -2193.0817    2098.1964    3102.9193    917.75332            0     6118.869   -4488.5929   -51.832201      37.4456      37.4456      37.4456            0            0            0   0.82372725 
256000 0.82372724821372100834 385.29589328036001916 684.79064323304999107 3987.3876698387598481 6200.7184090637301779 10188.106078902499576 10712.473967526699198
256000 0.82372724821372100834 385.29589328036001916 684.79064323304999107 3987.3876698387598481 6200.7184090637301779 10188.106078902499576 10712.473967526699198
  256000    52505.208    385.29589    684.79064    6200.7184    3987.3877    10188.106    10712.474   -1764.9274    4070.0884   -2184.3135    2141.6016    3093.9366    936.16303            0    6171.7012   -4489.4745   -51.832201      37.4456      37.4456      37.4456            0            0            0   0.82372725 
257000 0.82372724821372100834 379.4887802490490003 690.01124400488902211 3941.9515857761298321 6107.2622541844402804 10049.213839960599216 10577.579323223499159
257000 0.82372724821372100834 379.4887802490490003 690.01124400488902211 3941.9515857761298321 6107.2622541844402804 10049.213839960599216 10577.579323223499159
  257000    52505.208    379.48878    690.01124    6107.2623    3941.9516    10049.214    10577.579   -1787.3132    4106.9991    -2170.846    2138.8535     3075.472    898.47213            0    6112.7976   -4490.5319   -51.832201      37.4456      37.4456      37.4456            0            0            0   0.82372725 
258000 0.82372724821372100834 377.66509299696298285 2726.9957136025600448 4089.5070711151302021 6077.9129376887403851 10167.420008803899691 12255.574978150199968
258000 0.82372724821372100834 377.66509299696298285 2726.9957136025600448 4089.5070711151302021 6077.9129376887403851 10167.420008803899691 12255.574978150199968
  258000    52505.208    377.66509    2726.9957    6077.9129    4089.5071     10167.42    12255.575   -1800.3662    4146.0888    -2143.751    2141.0167    3177.8532    914.38823            0    6233.2581   -4489.4737   -51.832201      37.4456      37.4456      37.4456            0            0            0   0.82372725 
259000 0.82372724821372100834 383.53173961364598199 2113.9410911769400627 3982.2501906481597871 6172.3271899814999415 10154.577380629700201 11773.295214481700896
259000 0.82372724821372100834 383.53173961364598199 2113.9410911769400627 3982.2501906481597871 6172.3271899814999415 10154.577380629700201 11773.295214481700896
  259000    52505.208    383.53174    2113.9411    6172.3272    3982.2502    10154.577    11773.295   -1816.5995     4164.162   -2140.4079    2129.9839    3072.9379    919.73631            0    6122.6581   -4487.9704   -51.832201      37.4456      37.4456      37.4456            0            0            0   0.82372725 
260000 0.82372724821372100834 381.49149100576801175 2844.3503980284399404 3973.1446339838198583 6139.4926663787900907 10112.63730036259949 12290.654811933500241
260000 0.82372724821372100834 381.49149100576801175 2844.3503980284399404 3973.1446339838198583 6139.4926663787900907 10112.63730036259949 12290.654811933500241
  260000    52505.208    381.49149    2844.3504    6139.4927    3973.1446    10112.637    12290.655   -1735.7651    4068.6658   -2154.5057    2107.2858    3095.2525    925.11206            0    6127.6504   -4487.4064   -51.832201      37.4456      37.4456      37.4456            0            0            0   0.82372725 
261000 0.82372724821372100834 383.52187256695401629 -1.966405339866809987 4021.9253906326798642 6172.1683957167997505 10194.093786349500078 10192.588041745000737
261000 0.82372724821372100834 383.52187256695401629 -1.966405339866809987 4021.9253906326798642 6172.1683957167997505 10194.093786349500078 10192.588041745000737
  261000    52505.208    383.52187   -1.9664053    6172.1684    4021.9254    10194.094    10192.588   -1802.7774     4137.188    -2154.218    2138.0849    3127.3208    910.73776            0    6176.1434   -4488.6286   -51.832201      37.4456      37.4456      37.4456            0            0            0   0.82372725 
262000 0.82372724821372100834 379.97722605609101265 1228.8629153404599492 3906.2550208368897984 6115.1230047410299449 10021.378025577900189 10962.360877334400357
262000 0.82372724821372100834 379.97722605609101265 1228.8629153404599492 3906.2550208368897984 6115.1230047410299449 10021.378025577900189 10962.360877334400357
  262000    52505.208    379.97723    1228.8629     6115.123     3906.255    10021.378    10962.361   -1816.2404    4131.3718   -2174.3811    2066.1826     3074.684    939.76959            0    6080.6362   -4489.5126   -51.832201      37.4456      37.4456      37.4456            0            0            0   0.82372725 
263000 0.82372724821372100834 380.80002590824398112 1380.1707836002899512 3942.606376907720005 6128.3646465005203936 10070.971023408199471 11127.815544998700716
263000 0.82372724821372100834 380.80002590824398112 1380.1707836002899512 3942.606376907720005 6128.3646465005203936 10070.971023408199471 11127.815544998700716
  263000    52505.208    380.80003    1380.1708    6128.3646    3942.6064    10070.971    11127.816   -1865.0036    4162.3012   -2189.5389     2080.854    3103.7583    947.53295            0    6132.1452   -4486.8365   -51.832201      37.4456      37.4456      37.4456            0            0            0   0.82372725 
264000 0.82372724821372100834 389.15272321073598505 1714.6592056290301116 4048.5575821417000952 6262.7878906413898221 10311.345472783099467 11624.319352100099422
264000 0.82372724821372100834 389.15272321073598505 1714.6592056290301116 4048.5575821417000952 6262.7878906413898221 10311.345472783099467 11624.319352100099422
  264000    52505.208    389.15272    1714.6592    6262.7879    4048.5576    10311.345    11624.319    -1798.424    4163.8324   -2123.8535    2100.9802    3185.9438    885.48714            0    6172.4111    -4489.262   -51.832201      37.4456      37.4456      37.4456            0            0            0   0.82372725 
265000 0.82372724821372100834 380.85250901626801578 3141.7496156767801949 4006.8229890171901388 6129.2092778079595519 10136.032266825099214 12541.778649077599766
265000 0.82372724821372100834 380.85250901626801578 3141.7496156767801949 4006.8229890171901388 6129.2092778079595519 10136.032266825099214 12541.778649077599766
  265000    52505.208    380.85251    3141.7496    6129.2093     4006.823    10136.032    12541.779   -1803.5364    4145.6909   -2147.7201    2065.6816    3158.4658    930.39571            0     6154.543   -4489.8745   -51.832201      37.4456      37.4456      37.4456            0            0            0   0.82372725 
266000 0.82372724821372100834 379.4069460587239746 1180.2199468965700362 4011.3159502321400396 6105.9452643610802625 10117.261214593199838 11020.9964624121003
266000 0.82372724821372100834 379.4069460587239746 1180.2199468965700362 4011.3159502321400396 6105.9452643610802625 10117.261214593199838 11020.9964624121003
  266000    52505.208    379.40695    1180.2199    6105.9453     4011.316    10117.261    11020.996   -1791.3712    4113.5767   -2166.6944    2113.5084    3125.2832    939.21883            0    6178.0104      -4488.9   -51.832201      37.4456      37.4456      37.4456            0            0            0   0.82372725 
267000 0.82372724821372100834 384.42666940368599171 1388.3411922501300069 4022.4901951206397825 6186.7296472116504447 10209.219842332300686 11272.3207285141998
267000 0.82372724821372100834 384.42666940368599171 1388.3411922501300069 4022.4901951206397825 6186.7296472116504447 10209.219842332300686 11272.3207285141998
  267000    52505.208    384.42667    1388.3412    6186.7296    4022.4902     10209.22    11272.321   -1793.6125    4115.8095   -2166.8399    2171.7889    3131.9808    885.56032            0    6189.3301   -4489.0369   -51.832201      37.4456      37.4456      37.4456            0            0            0   0.82372725 
268000 0.82372724821372100834 378.32646362691002651 812.26741112056902239 4056.994554090820202 6088.5566354593302094 10145.551189550100389 10767.532449919899591
268000 0.82372724821372100834 378.32646362691002651 812.26741112056902239 4056.994554090820202 6088.5566354593302094 10145.551189550100389 10767.532449919899591
  268000    52505.208    378.32646    812.26741    6088.5566    4056.9946    10145.551    10767.532   -1780.5857    4088.2532   -2183.3226    2181.8413    3133.4864    924.98954            0    6240.3172   -4490.9901   -51.832201      37.4456      37.4456      37.4456            0            0            0   0.82372725 
269000 0.82372724821372100834 382.38755340400001614 2164.5140700097499575 3883.5678465186101675 6153.9133511182199072 10037.481197636800061 11694.924511157800225
269000 0.82372724821372100834 382.38755340400001614 2164.5140700097499575 3883.5678465186101675 6153.9133511182199072 10037.481197636800061 11694.924511157800225
  269000    52505.208    382.38755    2164.5141    6153.9134    3883.5678    10037.481    11694.925    -1776.908      4109.24   -2156.5282    2074.2012     3061.243    904.65183            0     6040.096   -4488.8602   -51.832201      37.4456      37.4456      37.4456            0            0            0   0.82372725 
270000 0.82372724821372100834 393.68806582293797192 848.97724062278803103 3955.5480867840401515 6335.7769437752403974 10291.325030559299194 10941.416277503800302
270000 0.82372724821372100834 393.68806582293797192 848.97724062278803103 3955.5480867840401515 6335.7769437752403974 10291.325030559299194 10941.416277503800302
  270000    52505.208    393.68807    848.97724    6335.7769    3955.5481    10291.325    10941.416   -1814.1732    4106.7644   -2196.3261    2125.0067    3062.5161    964.35144            0    6151.8742   -4488.9172   -51.832201      37.4456      37.4456      37.4456            0            0            0   0.82372725 
271000 0.82372724821372100834 376.17022021980801583 1330.4354188101399359 4020.4381868691798445 6053.855361913409979 10074.293548782599828 11093.053980757200407
271000 0.82372724821372100834 376.17022021980801583 1330.4354188101399359 4020.4381868691798445 6053.855361913409979 10074.293548782599828 11093.053980757200407
  271000    52505.208    376.17022    1330.4354    6053.8554    4020.4382    10074.294    11093.054   -1787.0826    4123.5333   -2152.3701    2109.1488    3156.3702    907.28933            0    6172.8083   -4488.8208   -51.832201      37.4456      37.4456      37.4456            0            0            0   0.82372725 
272000 0.82372724821372100834 392.33362409004701021 2714.5184850158998415 3912.2564979088501786 6313.9793800492398077 10226.2358779581009 12304.836601675400743
272000 0.82372724821372100834 392.33362409004701021 2714.5184850158998415 3912.2564979088501786 6313.9793800492398077 10226.2358779581009 12304.836601675400743
  272000    52505.208    392.33362    2714.5185    6313.9794    3912.2565    10226.236    12304.837   -1828.5963    4168.9247   -2149.7319    2065.2424     3081.607    915.13896            0    6061.9884   -4490.0603   -51.832201      37.4456      37.4456      37.4456            0            0            0   0.82372725 
273000 0.82372724821372100834 384.86672640577097582 752.94374887338403823 4028.5708279006098564 6193.8116576909997093 10222.382485591599107 10798.937565236799855
273000 0.82372724821372100834 384.86672640577097582 752.94374887338403823 4028.5708279006098564 6193.8116576909997093 10222.382485591599107 10798.937565236799855
  273000    52505.208    384.86673    752.94375    6193.8117    4028.5708    10222.382    10798.938   -1839.6633    4206.3616   -2120.2853    2169.4856    3069.5727    909.79781            0    6148.8561   -4486.9835   -51.832201      37.4456      37.4456      37.4456            0            0            0   0.82372725 
274000 0.82372724821372100834 383.15562251931100946 2036.5078200594300597 3972.5033227495700885 6166.2741895953604399 10138.777512344899151 11698.202011385199512
274000 0.82372724821372100834 383.15562251931100946 2036.5078200594300597 3972.5033227495700885 6166.2741895953604399 10138.777512344899151 11698.202011385199512
  274000    52505.208    383.15562    2036.5078    6166.2742    3972.5033    10138.778    11698.202   -1844.6423    4232.5876   -2098.7781    2096.5675    3074.5979    900.11604            0    6071.2814   -4486.7234   -51.832201      37.4456      37.4456      37.4456            0            0            0   0.82372725 
275000 0.82372724821372100834 381.19053545220799606 447.24838947165301306 3896.4430915863699738 6134.6492702413997904 10031.092361827799323 10373.565928012299992
275000 0.82372724821372100834 381.19053545220799606 447.24838947165301306 3896.4430915863699738 6134.6492702413997904 10031.092361827799323 10373.565928012299992
  275000    52505.208    381.19054    447.24839    6134.6493    3896.4431    10031.092    10373.566   -1805.0213    4156.6045   -2136.2104    2046.5467    3064.8052    921.30157            0    6032.6535   -4487.7936   -51.832201      37.4456      37.4456      37.4456            0            0            0   0.82372725 
276000 0.82372724821372100834 385.76843516674699686 129.1651525516300012 3972.4688707780301229 6208.3232115676801186 10180.792082345700692 10279.698308645100042
276000 0.82372724821372100834 385.76843516674699686 129.1651525516300012 3972.4688707780301229 6208.3232115676801186 10180.792082345700692 10279.698308645100042
  276000    52505.208    385.76844    129.16515    6208.3232    3972.4689    10180.792    10279.698   -1805.9565     4176.724   -2115.9588    2121.2603    3038.5244    928.64288            0    6088.4276   -4486.7262   -51.832201      37.4456      37.4456      37.4456            0            0            0   0.82372725 
277000 0.82372724821372100834 384.19817715407600645 691.54682351667895546 4021.0395713953598715 6183.052431536109907 10204.092002931500247 10733.633332556199093
277000 0.82372724821372100834 384.19817715407600645 691.54682351667895546 4021.0395713953598715 6183.052431536109907 10204.092002931500247 10733.633332556199093
  277000    52505.208    384.19818    691.54682    6183.0524    4021.0396    10204.092    10733.633   -1822.7222    4204.7478   -2105.9507    2059.6746    3166.7103    900.60539            0    6126.9903   -4487.9763   -51.832201      37.4456      37.4456      37.4456            0            0            0   0.82372725 
278000 0.82372724821372100834 387.45269668533597951 1758.8374095807200774 3954.9171364817098038 6235.4286948757799109 10190.345831357499264 11537.14848996389992
278000 0.82372724821372100834 387.45269668533597951 1758.8374095807200774 3954.9171364817098038 6235.4286948757799109 10190.345831357499264 11537.14848996389992
  278000    52505.208     387.4527    1758.8374    6235.4287    3954.9171    10190.346    11537.148    -1777.262    4135.2146   -2128.3432    2081.1934    3063.5699    938.49709            0    6083.2604   -4486.2958   -51.832201      37.4456      37.4456      37.4456            0            0            0   0.82372725 
279000 0.82372724821372100834 382.85867757020497493 3226.6120385118501872 4009.7791941746099837 6161.4953376934399785 10171.274531868000849 12642.00300744390006
279000 0.82372724821372100834 382.85867757020497493 3226.6120385118501872 4009.7791941746099837 6161.4953376934399785 10171.274531868000849 12642.00300744390006
  279000    52505.208    382.85868     3226.612    6161.4953    4009.7792    10171.275    12642.003   -1811.6803    4178.3332   -2122.2144    2086.1613    3123.5583    922.27396            0    6131.9936   -4488.8673   -51.832201      37.4456      37.4456      37.4456            0            0            0   0.82372725 
280000 0.82372724821372100834 387.84997653184700539 532.08526138657896354 3945.9027055297201514 6241.8222757593903225 10187.724981289100469 10595.161075573400012
280000 0.82372724821372100834 387.84997653184700539 532.08526138657896354 3945.9027055297201514 6241.8222757593903225 10187.724981289100469 10595.161075573400012
  280000    52505.208    387.84998    532.08526    6241.8223    3945.9027    10187.725    10595.161   -1834.1053    4227.8726   -2094.1133    2071.7355    3040.3934    927.88706            0     6040.016   -4487.8806   -51.832201      37.4456      37.4456      37.4456            0            0            0   0.82372725 
  280518    52505.208    377.60365    1166.9419    6076.9242    4172.3837    10249.308    11142.876   -1807.9475    4200.2119    -2095.689    2139.2555    3161.7386    967.07861            0    6268.0727   -4487.9534   -51.832201      37.4456      37.4456      37.4456            0            0            0   0.82372725 
Loop time of 144.375 on 48 procs for 30000 steps with 5400 atoms

Performance: 17.953 ns/day, 1.337 hours/ns, 207.792 timesteps/s
67.6% CPU use with 48 MPI tasks x 1 OpenMP threads

MPI task timing breakdown:
Section |  min time  |  avg time  |  max time  |%varavg| %total
---------------------------------------------------------------
Pair    | 54.646     | 59.342     | 66.202     |  33.5 | 41.10
Bond    | 2.1419     | 2.4811     | 2.8345     |   9.5 |  1.72
Kspace  | 15.63      | 23.398     | 28.938     |  60.9 | 16.21
Neigh   | 14.318     | 15.044     | 15.672     |  11.0 | 10.42
Comm    | 29.522     | 33.67      | 39.513     |  38.0 | 23.32
Output  | 0.17432    | 0.17467    | 0.17496    |   0.0 |  0.12
Modify  | 2.7458     | 6.372      | 8.9283     |  57.7 |  4.41
Other   |            | 3.894      |            |       |  2.70

Nlocal:    112.5 ave 126 max 102 min
Histogram: 7 3 5 3 10 6 5 7 1 1
Nghost:    6667.69 ave 6714 max 6615 min
Histogram: 3 5 3 3 5 5 10 9 1 4
Neighs:    81744 ave 91322 max 73037 min
Histogram: 3 5 6 6 7 5 4 6 4 2

Total # of neighbors = 3923713
Ave neighs/atom = 726.614
Ave special neighs/atom = 10.4444
Neighbor list builds = 3851
Dangerous builds = 0

write_data      restart.${NAME}.final.data
write_data      restart.octanol_383k.final.data
Ewald initialization ...
  using 12-bit tables for long-range coulomb (src/kspace.cpp:332)
  G vector (1/distance) = 0.142485
  estimated absolute RMS force accuracy = 0.0338118
  estimated relative force accuracy = 0.000101823
  KSpace vectors: actual max1d max3d = 128 4 364
                  kxmax kymax kzmax  = 4 4 4
Total wall time: 0:21:26
