octanol.data - created by mBuild; units = real

5400 atoms
5200 bonds
9800 angles
13200 dihedrals
0 impropers

6 atom types
8 bond types
14 angle types
15 dihedral types

0.000000 40.000000 xlo xhi
0.000000 40.000000 ylo yhi
0.000000 40.000000 zlo zhi

Masses

1	12.010780	# opls_135
2	12.010780	# opls_136
3	1.007947	# opls_140
4	15.999430	# opls_154
5	1.007947	# opls_155
6	12.010780	# opls_157

Pair Coeffs # lj
#	epsilon (kcal/mol)		sigma (Angstrom)
1	0.06600		3.50000		# opls_135
2	0.06600		3.50000		# opls_136
3	0.03000		2.50000		# opls_140
4	0.17000		3.12000		# opls_154
5	0.00000		10.00000		# opls_155
6	0.06600		3.50000		# opls_157

Bond Coeffs # harmonic
#	k(kcal/mol/angstrom^2)		req(angstrom)
1	268.0		1.529		# opls_135	opls_136
2	268.0		1.529		# opls_136	opls_136
3	268.0		1.529		# opls_136	opls_157
4	320.0		1.41		# opls_154	opls_157
5	340.0		1.09		# opls_135	opls_140
6	340.0		1.09		# opls_136	opls_140
7	340.0		1.09		# opls_140	opls_157
8	553.0		0.945		# opls_154	opls_155

Angle Coeffs # harmonic
#	k(kcal/mol/rad^2)		theteq(deg)
1	58.35		112.70000	# opls_135	opls_136	opls_136
2	37.5		110.70000	# opls_135	opls_136	opls_140
3	37.5		110.70000	# opls_136	opls_135	opls_140
4	58.35		112.70000	# opls_136	opls_136	opls_136
5	37.5		110.70000	# opls_136	opls_136	opls_140
6	58.35		112.70000	# opls_136	opls_136	opls_157
7	50.0		109.50000	# opls_136	opls_157	opls_154
8	37.5		110.70000	# opls_136	opls_157	opls_140
9	37.5		110.70000	# opls_140	opls_136	opls_157
10	55.0		108.50000	# opls_155	opls_154	opls_157
11	35.0		109.50000	# opls_140	opls_157	opls_154
12	33.0		107.80000	# opls_140	opls_135	opls_140
13	33.0		107.80000	# opls_140	opls_136	opls_140
14	33.0		107.80000	# opls_140	opls_157	opls_140

Dihedral Coeffs # opls
#	f1(kcal/mol)	f2(kcal/mol)	f3(kcal/mol)	f4(kcal/mol)
1	1.30000	-0.05000		0.20000		-0.00000	# opls_135	opls_136	opls_136	opls_136
2	-0.00000	-0.00000		0.30000		-0.00000	# opls_135	opls_136	opls_136	opls_140
3	1.30000	-0.05000		0.20000		-0.00000	# opls_136	opls_136	opls_136	opls_136
4	-0.00000	-0.00000		0.30000		-0.00000	# opls_136	opls_136	opls_136	opls_140
5	-0.00000	-0.00000		0.30000		-0.00000	# opls_136	opls_136	opls_135	opls_140
6	1.30000	-0.05000		0.20000		-0.00000	# opls_136	opls_136	opls_136	opls_157
7	1.71100	-0.50000		0.66300		-0.00000	# opls_136	opls_136	opls_157	opls_154
8	-0.00000	-0.00000		0.30000		-0.00000	# opls_136	opls_136	opls_157	opls_140
9	-0.35600	-0.17400		0.49200		-0.00000	# opls_136	opls_157	opls_154	opls_155
10	-0.00000	-0.00000		0.30000		-0.00000	# opls_157	opls_136	opls_136	opls_140
11	0.00000	-0.00000		0.46800		-0.00000	# opls_154	opls_157	opls_136	opls_140
12	-0.00000	-0.00000		0.30000		-0.00000	# opls_140	opls_135	opls_136	opls_140
13	-0.00000	-0.00000		0.30000		-0.00000	# opls_140	opls_136	opls_136	opls_140
14	-0.00000	-0.00000		0.30000		-0.00000	# opls_140	opls_136	opls_157	opls_140
15	0.00000	-0.00000		0.45000		-0.00000	# opls_140	opls_157	opls_154	opls_155

Atoms # full

1	1	1	-0.180000	34.103421	29.759651	7.424516
2	1	2	-0.120000	32.776914	29.119853	7.014829
3	1	2	-0.120000	31.776183	30.136023	6.442313
4	1	2	-0.120000	32.164976	30.615303	5.033044
5	1	2	-0.120000	31.171310	31.640627	4.463048
6	1	2	-0.120000	29.836153	31.005658	4.045398
7	1	2	-0.120000	28.933149	32.035554	3.352837
8	1	6	0.145000	27.564424	31.449501	2.993802
9	1	4	-0.683000	27.689879	30.467907	1.999331
10	1	3	0.060000	34.732441	29.004158	7.940800
11	1	3	0.060000	34.659895	30.119709	6.534969
12	1	3	0.060000	33.928351	30.607223	8.120724
13	1	3	0.060000	32.965162	28.309528	6.277330
14	1	3	0.060000	32.325104	28.653271	7.917094
15	1	3	0.060000	30.785002	29.638152	6.398594
16	1	3	0.060000	31.687506	31.005414	7.130109
17	1	3	0.060000	33.160439	31.105012	5.076811
18	1	3	0.060000	32.246968	29.746281	4.344009
19	1	3	0.060000	30.991849	32.446416	5.208409
20	1	3	0.060000	31.638560	32.108653	3.568675
21	1	3	0.060000	29.310562	30.613417	4.941588
22	1	3	0.060000	30.033923	30.161395	3.349714
23	1	3	0.060000	28.776887	32.901571	4.032822
24	1	3	0.060000	29.425259	32.407349	2.427382
25	1	3	0.060000	27.062137	31.043351	3.902608
26	1	3	0.060000	26.922851	32.265265	2.598578
27	1	5	0.418000	27.804414	29.598722	2.464815
28	2	1	-0.180000	21.613337	7.138290	32.675813
29	2	2	-0.120000	21.958600	7.418858	31.213321
30	2	2	-0.120000	21.527845	8.821818	30.757261
31	2	2	-0.120000	22.415726	9.931111	31.347216
32	2	2	-0.120000	21.979459	11.336270	30.901395
33	2	2	-0.120000	22.325641	11.628230	29.433342
34	2	2	-0.120000	22.003526	13.085314	29.074330
35	2	6	0.145000	22.267280	13.383905	27.595462
36	2	4	-0.683000	23.639910	13.318828	27.312815
37	2	3	0.060000	21.834632	6.075403	32.908802
38	2	3	0.060000	22.220866	7.772105	33.353888
39	2	3	0.060000	20.534193	7.322620	32.863438
40	2	3	0.060000	23.050424	7.282219	31.054519
41	2	3	0.060000	21.432118	6.668763	30.583965
42	2	3	0.060000	21.598131	8.847615	29.649732
43	2	3	0.060000	20.464700	8.997149	31.032486
44	2	3	0.060000	22.351379	9.898276	32.455123
45	2	3	0.060000	23.477847	9.759105	31.066138
46	2	3	0.060000	20.886653	11.461736	31.066010
47	2	3	0.060000	22.503117	12.076986	31.545131
48	2	3	0.060000	21.740276	10.957717	28.769252
49	2	3	0.060000	23.408352	11.438110	29.267632
50	2	3	0.060000	20.930659	13.286350	29.287225
51	2	3	0.060000	22.614547	13.772270	29.700121
52	2	3	0.060000	21.686689	12.687826	26.946181
53	2	3	0.060000	21.914826	14.413480	27.374012
54	2	5	0.418000	23.832968	12.386099	27.033493
55	3	1	-0.180000	23.686351	31.418366	17.900976
56	3	2	-0.120000	22.748586	32.114587	16.914730
57	3	2	-0.120000	21.440797	31.340215	16.686975
58	3	2	-0.120000	20.491229	31.420238	17.894794
59	3	2	-0.120000	19.187142	30.636686	17.673525
60	3	2	-0.120000	18.236878	31.330989	16.686002
61	3	2	-0.120000	16.894586	30.591013	16.605817
62	3	6	0.145000	15.954780	31.217260	15.571239
63	3	4	-0.683000	15.549386	32.496974	15.978947
64	3	3	0.060000	24.656979	31.956974	17.928678
65	3	3	0.060000	23.259753	31.426635	18.924960
66	3	3	0.060000	23.874249	30.369989	17.585805
67	3	3	0.060000	22.527710	33.143772	17.272445
68	3	3	0.060000	23.276690	32.204671	15.940612
69	3	3	0.060000	20.942041	31.783533	15.799880
70	3	3	0.060000	21.668809	30.277725	16.450559
71	3	3	0.060000	20.994806	30.984657	18.783251
72	3	3	0.060000	20.258144	32.482592	18.126671
73	3	3	0.060000	19.420447	29.609186	17.317325
74	3	3	0.060000	18.673908	30.542951	18.655909
75	3	3	0.060000	18.695794	31.351390	15.674946
76	3	3	0.060000	18.062221	32.376922	17.019754
77	3	3	0.060000	17.076751	29.532043	16.319142
78	3	3	0.060000	16.398976	30.599062	17.601394
79	3	3	0.060000	16.440992	31.246873	14.568293
80	3	3	0.060000	15.051067	30.578099	15.481430
81	3	5	0.418000	16.201159	33.141166	15.597522
82	4	1	-0.180000	33.696732	28.143048	29.372624
83	4	2	-0.120000	33.838600	27.302645	28.103607
84	4	2	-0.120000	34.297291	28.126990	26.890390
85	4	2	-0.120000	35.778567	28.532745	26.980356
86	4	2	-0.120000	36.236525	29.367270	25.773128
87	4	2	-0.120000	36.385080	28.529834	24.493717
88	4	2	-0.120000	36.979082	29.370443	23.355175
89	4	6	0.145000	37.067365	28.581858	22.045170
90	4	4	-0.683000	38.006354	27.544977	22.152011
91	4	3	0.060000	33.247296	27.522725	30.176484
92	4	3	0.060000	34.687291	28.496779	29.725139
93	4	3	0.060000	33.034670	29.015928	29.189628
94	4	3	0.060000	34.545794	26.464810	28.287664
95	4	3	0.060000	32.846458	26.858486	27.870606
96	4	3	0.060000	34.143873	27.501559	25.986218
97	4	3	0.060000	33.659298	29.032041	26.787370
98	4	3	0.060000	35.932152	29.150679	27.889887
99	4	3	0.060000	36.416686	27.627077	27.076596
100	4	3	0.060000	35.522785	30.202440	25.599541
101	4	3	0.060000	37.223572	29.815545	26.022248
102	4	3	0.060000	35.391164	28.148921	24.177028
103	4	3	0.060000	37.050627	27.663243	24.698504
104	4	3	0.060000	36.337265	30.262642	23.185369
105	4	3	0.060000	37.994935	29.724305	23.637476
106	4	3	0.060000	36.064074	28.191325	21.755224
107	4	3	0.060000	37.399297	29.270263	21.239434
108	4	5	0.418000	37.513868	26.740616	22.461424
109	5	1	-0.180000	16.041210	15.879469	8.700899
110	5	2	-0.120000	16.019272	17.310158	9.238910
111	5	2	-0.120000	17.332533	18.065141	8.979715
112	5	2	-0.120000	17.506909	18.452598	7.501074
113	5	2	-0.120000	18.825468	19.197925	7.237549
114	5	2	-0.120000	18.811146	20.638178	7.772085
115	5	2	-0.120000	20.086781	21.386861	7.362242
116	5	6	0.145000	20.134614	22.801895	7.946335
117	5	4	-0.683000	19.137291	23.608001	7.377319
118	5	3	0.060000	15.120503	15.350200	9.025183
119	5	3	0.060000	16.067444	15.874672	7.591896
120	5	3	0.060000	16.921443	15.328613	9.095208
121	5	3	0.060000	15.164209	17.863618	8.793359
122	5	3	0.060000	15.852567	17.263827	10.337080
123	5	3	0.060000	17.314494	18.986064	9.599233
124	5	3	0.060000	18.194211	17.448110	9.316690
125	5	3	0.060000	17.515756	17.531079	6.881880
126	5	3	0.060000	16.648398	19.075204	7.166389
127	5	3	0.060000	19.673114	18.634763	7.686336
128	5	3	0.060000	18.987231	19.227684	6.137448
129	5	3	0.060000	18.742966	20.626428	8.880448
130	5	3	0.060000	17.924029	21.170813	7.365646
131	5	3	0.060000	20.974387	20.825689	7.728333
132	5	3	0.060000	20.149382	21.447234	6.253502
133	5	3	0.060000	20.044568	22.769866	9.057211
134	5	3	0.060000	21.122359	23.249957	7.707823
135	5	5	0.418000	18.335469	23.526999	7.956799
136	6	1	-0.180000	11.919076	19.688431	25.922213
137	6	2	-0.120000	11.654138	21.016015	26.632240
138	6	2	-0.120000	11.228985	22.134089	25.667361
139	6	2	-0.120000	9.795571	21.944614	25.141690
140	6	2	-0.120000	9.372303	23.055903	24.167299
141	6	2	-0.120000	9.100603	24.393287	24.872880
142	6	2	-0.120000	8.545036	25.429646	23.886448
143	6	6	0.145000	8.336682	26.796058	24.546204
144	6	4	-0.683000	7.310918	26.735101	25.501364
145	6	3	0.060000	12.338762	18.960306	26.647942
146	6	3	0.060000	10.978813	19.263773	25.514572
147	6	3	0.060000	12.651406	19.826674	25.098615
148	6	3	0.060000	10.880157	20.871766	27.417170
149	6	3	0.060000	12.592046	21.329369	27.140227
150	6	3	0.060000	11.291019	23.093537	26.222193
151	6	3	0.060000	11.943255	22.188944	24.816728
152	6	3	0.060000	9.732879	20.980454	24.594751
153	6	3	0.060000	9.080872	21.896554	25.992329
154	6	3	0.060000	10.152937	23.190244	23.386512
155	6	3	0.060000	8.440434	22.726383	23.657093
156	6	3	0.060000	10.043021	24.784715	25.310930
157	6	3	0.060000	8.366182	24.232670	25.691841
158	6	3	0.060000	9.259481	25.552234	23.043048
159	6	3	0.060000	7.577042	25.073748	23.470283
160	6	3	0.060000	9.288525	27.162088	24.996974
161	6	3	0.060000	8.040111	27.525551	23.763149
162	6	5	0.418000	7.738402	26.516561	26.370141
163	7	1	-0.180000	26.693561	21.784144	16.251997
164	7	2	-0.120000	27.840725	21.439633	15.302187
165	7	2	-0.120000	28.955825	22.497168	15.305329
166	7	2	-0.120000	29.797425	22.461488	16.592709
167	7	2	-0.120000	30.906343	23.526267	16.602877
168	7	2	-0.120000	32.065320	23.186436	15.653377
169	7	2	-0.120000	33.209600	24.198470	15.802218
170	7	6	0.145000	34.347006	23.928536	14.812665
171	7	4	-0.683000	34.994230	22.721636	15.117182
172	7	3	0.060000	25.869377	21.052926	16.114063
173	7	3	0.060000	27.026193	21.731230	17.308952
174	7	3	0.060000	26.301854	22.800995	16.036797
175	7	3	0.060000	28.256690	20.442737	15.565130
176	7	3	0.060000	27.427490	21.369173	14.272534
177	7	3	0.060000	29.611885	22.291198	14.433900
178	7	3	0.060000	28.515575	23.508747	15.165140
179	7	3	0.060000	29.138306	22.658763	17.464100
180	7	3	0.060000	30.242942	21.451718	16.728981
181	7	3	0.060000	30.478563	24.518693	16.339894
182	7	3	0.060000	31.303645	23.596011	17.639487
183	7	3	0.060000	31.706673	23.203020	14.602495
184	7	3	0.060000	32.442106	22.166682	15.885765
185	7	3	0.060000	32.818761	25.223023	15.616969
186	7	3	0.060000	33.611520	24.164179	16.838632
187	7	3	0.060000	33.963255	23.929333	13.765807
188	7	3	0.060000	35.088738	24.751120	14.893158
189	7	5	0.418000	34.536728	22.010015	14.597986
190	8	1	-0.180000	27.529222	30.507272	24.851088
191	8	2	-0.120000	26.147159	29.887426	25.057246
192	8	2	-0.120000	25.764096	28.900008	23.943645
193	8	2	-0.120000	26.547283	27.578833	24.033229
194	8	2	-0.120000	26.173882	26.594002	22.913303
195	8	2	-0.120000	24.787395	25.963475	23.114179
196	8	2	-0.120000	24.517824	24.885278	22.055613
197	8	6	0.145000	23.111426	24.292755	22.184974
198	8	4	-0.683000	22.989054	23.559271	23.374623
199	8	3	0.060000	27.695655	31.297294	25.613420
200	8	3	0.060000	28.325941	29.744240	24.967789
201	8	3	0.060000	27.602525	30.969087	23.843573
202	8	3	0.060000	26.107927	29.383188	26.047283
203	8	3	0.060000	25.398370	30.709052	25.069901
204	8	3	0.060000	24.678943	28.689260	24.044906
205	8	3	0.060000	25.925194	29.372488	22.949876
206	8	3	0.060000	27.632917	27.792215	23.940788
207	8	3	0.060000	26.380556	27.103365	25.024604
208	8	3	0.060000	26.217800	27.108808	21.928361
209	8	3	0.060000	26.935766	25.783634	22.902775
210	8	3	0.060000	24.004022	26.746673	23.035542
211	8	3	0.060000	24.735704	25.507492	24.126739
212	8	3	0.060000	24.618291	25.333300	21.042714
213	8	3	0.060000	25.267747	24.069264	22.148379
214	8	3	0.060000	22.341097	25.096510	22.123741
215	8	3	0.060000	22.938024	23.603399	21.331739
216	8	5	0.418000	22.656367	24.187178	24.067679
217	9	1	-0.180000	36.375913	7.634374	19.841762
218	9	2	-0.120000	35.225138	6.725372	19.410207
219	9	2	-0.120000	34.807808	5.730789	20.504958
220	9	2	-0.120000	34.051356	6.409695	21.659850
221	9	2	-0.120000	33.642960	5.418339	22.761659
222	9	2	-0.120000	32.484425	4.502741	22.337708
223	9	2	-0.120000	32.017047	3.631922	23.512005
224	9	6	0.145000	30.913261	2.654192	23.097913
225	9	4	-0.683000	29.736330	3.343801	22.770024
226	9	3	0.060000	36.711739	8.240136	18.973858
227	9	3	0.060000	36.050673	8.331041	20.641433
228	9	3	0.060000	37.235051	7.030102	20.202969
229	9	3	0.060000	34.354804	7.345077	19.102875
230	9	3	0.060000	35.556220	6.147869	18.519821
231	9	3	0.060000	34.148948	4.972866	20.032006
232	9	3	0.060000	35.705082	5.202146	20.895089
233	9	3	0.060000	34.708398	7.173642	22.126067
234	9	3	0.060000	33.150528	6.932552	21.270208
235	9	3	0.060000	34.521161	4.805310	23.061701
236	9	3	0.060000	33.325121	6.006998	23.650328
237	9	3	0.060000	32.813367	3.840508	21.509155
238	9	3	0.060000	31.636422	5.126646	21.980630
239	9	3	0.060000	32.879027	3.045124	23.898583
240	9	3	0.060000	31.642035	4.278390	24.335604
241	9	3	0.060000	31.255654	2.012790	22.252603
242	9	3	0.060000	30.695681	1.982487	23.955095
243	9	5	0.418000	29.771569	3.527186	21.795137
244	10	1	-0.180000	27.874441	13.049726	7.170548
245	10	2	-0.120000	28.514361	13.286809	5.802666
246	10	2	-0.120000	28.590975	14.775782	5.429937
247	10	2	-0.120000	29.659009	15.531169	6.239631
248	10	2	-0.120000	29.729441	17.023383	5.876460
249	10	2	-0.120000	30.374443	17.271311	4.504321
250	10	2	-0.120000	30.553919	18.773798	4.247293
251	10	6	0.145000	31.124851	19.053625	2.853913
252	10	4	-0.683000	32.445072	18.589279	2.755746
253	10	3	0.060000	27.735213	11.959355	7.327687
254	10	3	0.060000	28.525032	13.433394	7.983031
255	10	3	0.060000	26.880946	13.543255	7.226490
256	10	3	0.060000	29.529185	12.833322	5.781477
257	10	3	0.060000	27.898446	12.765398	5.038013
258	10	3	0.060000	28.840698	14.835797	4.350001
259	10	3	0.060000	27.596021	15.251396	5.573557
260	10	3	0.060000	29.412766	15.462635	7.320068
261	10	3	0.060000	30.654898	15.059330	6.090422
262	10	3	0.060000	28.709499	17.466241	5.902167
263	10	3	0.060000	30.337665	17.535991	6.654001
264	10	3	0.060000	29.731797	16.845279	3.705097
265	10	3	0.060000	31.366127	16.770065	4.469913
266	10	3	0.060000	29.567217	19.280017	4.330619
267	10	3	0.060000	31.231652	19.209643	5.013835
268	10	3	0.060000	30.476876	18.601062	2.067470
269	10	3	0.060000	31.128822	20.151551	2.687082
270	10	5	0.418000	32.398655	17.657598	2.416493
271	11	1	-0.180000	8.561544	6.520551	2.731379
272	11	2	-0.120000	9.279604	5.950794	3.954725
273	11	2	-0.120000	10.414985	4.983914	3.583390
274	11	2	-0.120000	11.640338	5.710266	3.002155
275	11	2	-0.120000	12.772968	4.743756	2.619315
276	11	2	-0.120000	13.502587	4.168725	3.842939
277	11	2	-0.120000	14.711268	3.325907	3.413414
278	11	6	0.145000	15.413007	2.677005	4.610185
279	11	4	-0.683000	16.018842	3.650644	5.418412
280	11	3	0.060000	7.680249	7.109091	3.062926
281	11	3	0.060000	9.230316	7.196237	2.159722
282	11	3	0.060000	8.208977	5.700827	2.069956
283	11	3	0.060000	9.672942	6.783046	4.578111
284	11	3	0.060000	8.534152	5.397521	4.566366
285	11	3	0.060000	10.712406	4.448983	4.509466
286	11	3	0.060000	10.042253	4.225740	2.860196
287	11	3	0.060000	11.339294	6.252080	2.081021
288	11	3	0.060000	12.016811	6.463627	3.728382
289	11	3	0.060000	12.368176	3.916803	1.995330
290	11	3	0.060000	13.505836	5.304883	1.998578
291	11	3	0.060000	12.808429	3.528189	4.426988
292	11	3	0.060000	13.846835	5.004453	4.490179
293	11	3	0.060000	14.370439	2.520058	2.726956
294	11	3	0.060000	15.439425	3.962441	2.864343
295	11	3	0.060000	14.695382	2.055040	5.194439
296	11	3	0.060000	16.205359	1.997953	4.230241
297	11	5	0.418000	15.351635	3.910860	6.105725
298	12	1	-0.180000	37.287821	31.908173	35.203458
299	12	2	-0.120000	36.487774	32.003565	33.904368
300	12	2	-0.120000	35.581164	30.784730	33.671264
301	12	2	-0.120000	34.362041	30.769769	34.609574
302	12	2	-0.120000	33.459801	29.545237	34.385877
303	12	2	-0.120000	32.649218	29.634162	33.083836
304	12	2	-0.120000	31.661016	28.464980	32.973319
305	12	6	0.145000	30.892910	28.485871	31.648423
306	12	4	-0.683000	30.031562	29.591782	31.591141
307	12	3	0.060000	38.009516	32.750548	35.253891
308	12	3	0.060000	36.618620	31.976103	36.085588
309	12	3	0.060000	37.856278	30.954687	35.241579
310	12	3	0.060000	35.883341	32.936639	33.905682
311	12	3	0.060000	37.207306	32.071759	33.059657
312	12	3	0.060000	35.231669	30.826774	32.618500
313	12	3	0.060000	36.169336	29.849025	33.794859
314	12	3	0.060000	34.713286	30.736774	35.662292
315	12	3	0.060000	33.770485	31.702601	34.480817
316	12	3	0.060000	34.074711	28.618442	34.387790
317	12	3	0.060000	32.752746	29.480731	35.242140
318	12	3	0.060000	33.336024	29.606551	32.211604
319	12	3	0.060000	32.088608	30.593994	33.066322
320	12	3	0.060000	32.219690	27.505714	33.040213
321	12	3	0.060000	30.936317	28.502219	33.816108
322	12	3	0.060000	31.599797	28.478064	30.786201
323	12	3	0.060000	30.279115	27.562858	31.580660
324	12	5	0.418000	30.540068	30.331812	31.167995
325	13	1	-0.180000	12.569564	36.382126	26.536696
326	13	2	-0.120000	12.203594	34.949917	26.147271
327	13	2	-0.120000	13.427627	34.106572	25.756953
328	13	2	-0.120000	14.292213	33.726502	26.971427
329	13	2	-0.120000	15.523523	32.892465	26.581793
330	13	2	-0.120000	15.165343	31.450219	26.192057
331	13	2	-0.120000	16.432043	30.617755	25.950773
332	13	6	0.145000	16.104445	29.195600	25.486095
333	13	4	-0.683000	15.478992	28.469960	26.511031
334	13	3	0.060000	11.640533	36.971530	26.686658
335	13	3	0.060000	13.143903	36.399142	27.485614
336	13	3	0.060000	13.166308	36.863756	25.733165
337	13	3	0.060000	11.653975	34.464546	26.982916
338	13	3	0.060000	11.515852	34.994047	25.274931
339	13	3	0.060000	13.052835	33.181476	25.271201
340	13	3	0.060000	14.040485	34.656256	25.009277
341	13	3	0.060000	14.658919	34.652844	27.461421
342	13	3	0.060000	13.680649	33.171003	27.715807
343	13	3	0.060000	16.065650	33.387999	25.746563
344	13	3	0.060000	16.208866	32.865239	27.457486
345	13	3	0.060000	14.555923	31.452704	25.263695
346	13	3	0.060000	14.569682	30.987406	27.008673
347	13	3	0.060000	17.049774	31.109508	25.167594
348	13	3	0.060000	17.034120	30.567176	26.884483
349	13	3	0.060000	15.475970	29.219838	24.565438
350	13	3	0.060000	17.053394	28.681317	25.224753
351	13	5	0.418000	14.501118	28.600553	26.401555
352	14	1	-0.180000	10.102260	30.500167	8.168414
353	14	2	-0.120000	10.669166	31.337422	7.021928
354	14	2	-0.120000	11.177765	32.712630	7.482328
355	14	2	-0.120000	12.491719	32.618546	8.277050
356	14	2	-0.120000	12.996274	33.992140	8.748454
357	14	2	-0.120000	13.571037	34.839336	7.602955
358	14	2	-0.120000	14.190720	36.136981	8.139475
359	14	6	0.145000	14.703664	37.037306	7.011612
360	14	4	-0.683000	15.798891	36.446543	6.363757
361	14	3	0.060000	9.641631	29.577232	7.757320
362	14	3	0.060000	10.904998	30.199056	8.872362
363	14	3	0.060000	9.321780	31.068973	8.717089
364	14	3	0.060000	11.485242	30.775801	6.517381
365	14	3	0.060000	9.859986	31.494792	6.276022
366	14	3	0.060000	11.343773	33.327259	6.572988
367	14	3	0.060000	10.397518	33.217231	8.093359
368	14	3	0.060000	12.326373	31.996155	9.181465
369	14	3	0.060000	13.273574	32.119940	7.663220
370	14	3	0.060000	12.172396	34.543846	9.252349
371	14	3	0.060000	13.796482	33.822038	9.502116
372	14	3	0.060000	12.763625	35.097649	6.885588
373	14	3	0.060000	14.349160	34.252447	7.068208
374	14	3	0.060000	13.422904	36.698657	8.715461
375	14	3	0.060000	15.031706	35.897756	8.826777
376	14	3	0.060000	13.883946	37.268429	6.292013
377	14	3	0.060000	15.037911	38.000461	7.451954
378	14	5	0.418000	15.434888	35.914454	5.608999
379	15	1	-0.180000	23.358552	12.463662	10.899196
380	15	2	-0.120000	22.928359	11.328045	9.970694
381	15	2	-0.120000	22.764049	11.780589	8.511227
382	15	2	-0.120000	24.113393	12.048380	7.822411
383	15	2	-0.120000	23.950902	12.512283	6.365720
384	15	2	-0.120000	23.521857	11.376321	5.424566
385	15	2	-0.120000	23.511565	11.849559	3.964537
386	15	6	0.145000	23.013730	10.759138	3.011167
387	15	4	-0.683000	23.924027	9.692971	2.957451
388	15	3	0.060000	23.339744	12.106625	11.950460
389	15	3	0.060000	24.391858	12.793881	10.667177
390	15	3	0.060000	22.664193	13.325759	10.807615
391	15	3	0.060000	23.662499	10.495571	10.033886
392	15	3	0.060000	21.950280	10.940065	10.329508
393	15	3	0.060000	22.231664	10.970782	7.969926
394	15	3	0.060000	22.126703	12.690956	8.468942
395	15	3	0.060000	24.648551	12.852254	8.370197
396	15	3	0.060000	24.747781	11.135743	7.858999
397	15	3	0.060000	23.215765	13.345396	6.315106
398	15	3	0.060000	24.931677	12.908686	6.021891
399	15	3	0.060000	22.502542	11.028999	5.695895
400	15	3	0.060000	24.229076	10.525290	5.531596
401	15	3	0.060000	22.840746	12.731533	3.870160
402	15	3	0.060000	24.535434	12.160204	3.661122
403	15	3	0.060000	21.998479	10.410015	3.312092
404	15	3	0.060000	22.925393	11.192930	1.992682
405	15	5	0.418000	23.646503	9.041445	3.652987
406	16	1	-0.180000	22.338227	19.451104	23.070474
407	16	2	-0.120000	21.599211	18.132883	23.300599
408	16	2	-0.120000	22.471394	16.901398	23.009772
409	16	2	-0.120000	23.545664	16.673097	24.087145
410	16	2	-0.120000	24.426736	15.448243	23.792186
411	16	2	-0.120000	23.692942	14.118576	24.024122
412	16	2	-0.120000	24.648889	12.929448	23.857148
413	16	6	0.145000	23.926972	11.587063	24.007521
414	16	4	-0.683000	23.479624	11.408642	25.325202
415	16	3	0.060000	21.625355	20.295904	23.175887
416	16	3	0.060000	23.145413	19.587537	23.819096
417	16	3	0.060000	22.771410	19.481354	22.048139
418	16	3	0.060000	21.218488	18.095485	24.344447
419	16	3	0.060000	20.719074	18.107130	22.621917
420	16	3	0.060000	21.798809	16.019134	22.971480
421	16	3	0.060000	22.948898	17.005800	22.010845
422	16	3	0.060000	24.212084	17.560051	24.130432
423	16	3	0.060000	23.067292	16.562045	25.084902
424	16	3	0.060000	24.802572	15.497148	22.746518
425	16	3	0.060000	25.308938	15.491083	24.468320
426	16	3	0.060000	22.862433	14.015981	23.294064
427	16	3	0.060000	23.268186	14.109081	25.051430
428	16	3	0.060000	25.109482	12.969065	22.845680
429	16	3	0.060000	25.464360	12.991881	24.610791
430	16	3	0.060000	23.085065	11.511987	23.280379
431	16	3	0.060000	24.642574	10.771841	23.769581
432	16	5	0.418000	22.556742	11.771579	25.368120
433	17	1	-0.180000	25.836077	6.894213	31.930832
434	17	2	-0.120000	25.969906	6.506616	30.458192
435	17	2	-0.120000	27.403854	6.109203	30.073885
436	17	2	-0.120000	27.805377	4.735483	30.638317
437	17	2	-0.120000	29.243557	4.341068	30.264647
438	17	2	-0.120000	29.386719	3.946633	28.786748
439	17	2	-0.120000	30.800240	3.425196	28.493823
440	17	6	0.145000	30.994827	3.096208	27.010693
441	17	4	-0.683000	30.204560	1.998694	26.637624
442	17	3	0.060000	24.814239	7.287063	32.116575
443	17	3	0.060000	25.989652	6.012997	32.586935
444	17	3	0.060000	26.570514	7.684939	32.193677
445	17	3	0.060000	25.266510	5.677946	30.224720
446	17	3	0.060000	25.671930	7.382568	29.841887
447	17	3	0.060000	27.454483	6.077936	28.965424
448	17	3	0.060000	28.116653	6.888272	30.422792
449	17	3	0.060000	27.745597	4.765667	31.746555
450	17	3	0.060000	27.096269	3.955654	30.283740
451	17	3	0.060000	29.937821	5.176499	30.503642
452	17	3	0.060000	29.534384	3.472102	30.895194
453	17	3	0.060000	29.189530	4.829085	28.142039
454	17	3	0.060000	28.644159	3.155304	28.545353
455	17	3	0.060000	31.543615	4.200532	28.781973
456	17	3	0.060000	30.999398	2.513731	29.099163
457	17	3	0.060000	30.772798	3.988222	26.379668
458	17	3	0.060000	32.060166	2.830604	26.843968
459	17	5	0.418000	29.338047	2.362528	26.318161
460	18	1	-0.180000	36.989429	8.279799	12.518748
461	18	2	-0.120000	36.025693	7.127536	12.802139
462	18	2	-0.120000	36.544414	6.168716	13.885389
463	18	2	-0.120000	36.479544	6.782237	15.294748
464	18	2	-0.120000	37.008712	5.828943	16.378615
465	18	2	-0.120000	36.044694	4.669364	16.672396
466	18	2	-0.120000	36.544355	3.828399	17.855129
467	18	6	0.145000	35.642156	2.619817	18.121851
468	18	4	-0.683000	34.381741	3.032361	18.579454
469	18	3	0.060000	36.620559	8.862491	11.648466
470	18	3	0.060000	37.052768	8.965074	13.388797
471	18	3	0.060000	38.001662	7.890703	12.278495
472	18	3	0.060000	35.032774	7.534155	13.093244
473	18	3	0.060000	35.889062	6.551920	11.860910
474	18	3	0.060000	35.911163	5.257549	13.853864
475	18	3	0.060000	37.587518	5.863505	13.649704
476	18	3	0.060000	37.106181	7.698344	15.322176
477	18	3	0.060000	35.435151	7.081137	15.532641
478	18	3	0.060000	38.002162	5.429765	16.077315
479	18	3	0.060000	37.152398	6.417918	17.311212
480	18	3	0.060000	35.960205	4.015944	15.778440
481	18	3	0.060000	35.039479	5.080188	16.910378
482	18	3	0.060000	37.569909	3.459124	17.634543
483	18	3	0.060000	36.593093	4.456897	18.771363
484	18	3	0.060000	35.554094	1.987943	17.207434
485	18	3	0.060000	36.111542	1.995160	18.911009
486	18	5	0.418000	33.803407	3.133983	17.779155
487	19	1	-0.180000	29.951683	35.327950	12.096617
488	19	2	-0.120000	29.923149	33.965741	11.403523
489	19	2	-0.120000	28.496383	33.441466	11.177000
490	19	2	-0.120000	27.759042	34.203825	10.062529
491	19	2	-0.120000	26.327471	33.688494	9.842087
492	19	2	-0.120000	26.289126	32.321090	9.142803
493	19	2	-0.120000	24.845919	31.913951	8.815489
494	19	6	0.145000	24.771504	30.519517	8.186371
495	19	4	-0.683000	25.362656	30.516532	6.914062
496	19	3	0.060000	31.001382	35.593896	12.342363
497	19	3	0.060000	29.543796	36.117676	11.432871
498	19	3	0.060000	29.366115	35.297230	13.039961
499	19	3	0.060000	30.467283	34.027531	10.436016
500	19	3	0.060000	30.465409	33.239231	12.046992
501	19	3	0.060000	28.576344	32.370514	10.896116
502	19	3	0.060000	27.918958	33.499718	12.125659
503	19	3	0.060000	27.687779	35.276290	10.340769
504	19	3	0.060000	28.333419	34.139654	9.112443
505	19	3	0.060000	25.792904	33.632134	10.815806
506	19	3	0.060000	25.791831	34.428471	9.207424
507	19	3	0.060000	26.738247	31.549270	9.802984
508	19	3	0.060000	26.879844	32.373960	8.202523
509	19	3	0.060000	24.245456	31.909349	9.751547
510	19	3	0.060000	24.393821	32.653476	8.118653
511	19	3	0.060000	25.245024	29.763002	8.854685
512	19	3	0.060000	23.702987	30.238455	8.074277
513	19	5	0.418000	26.317311	30.275675	7.040148
514	20	1	-0.180000	36.750405	32.952237	8.271846
515	20	2	-0.120000	36.196766	32.566842	6.900072
516	20	2	-0.120000	34.757457	33.057796	6.678287
517	20	2	-0.120000	34.681258	34.578847	6.460322
518	20	2	-0.120000	33.241016	35.073706	6.249669
519	20	2	-0.120000	32.677533	34.693644	4.871881
520	20	2	-0.120000	31.297601	35.328208	4.650837
521	20	6	0.145000	30.677885	34.904010	3.316003
522	20	4	-0.683000	31.407975	35.430539	2.239911
523	20	3	0.060000	37.738331	32.467268	8.419467
524	20	3	0.060000	36.892174	34.049920	8.346614
525	20	3	0.060000	36.066549	32.610736	9.077731
526	20	3	0.060000	36.863997	32.962213	6.103546
527	20	3	0.060000	36.204433	31.457791	6.823512
528	20	3	0.060000	34.364210	32.539486	5.778877
529	20	3	0.060000	34.122155	32.763828	7.542428
530	20	3	0.060000	35.083181	35.095678	7.356994
531	20	3	0.060000	35.311360	34.871510	5.591984
532	20	3	0.060000	32.583531	34.673248	7.052422
533	20	3	0.060000	33.243940	36.182354	6.340029
534	20	3	0.060000	32.580442	33.589871	4.797629
535	20	3	0.060000	33.375860	35.044409	4.081203
536	20	3	0.060000	30.614660	35.014380	5.470523
537	20	3	0.060000	31.383120	36.436734	4.677771
538	20	3	0.060000	30.607689	33.793044	3.252733
539	20	3	0.060000	29.643170	35.303858	3.263307
540	20	5	0.418000	32.093056	34.754286	1.997792
541	21	1	-0.180000	30.840668	13.690003	3.427984
542	21	2	-0.120000	31.515274	12.357779	3.101039
543	21	2	-0.120000	30.811643	11.157019	3.752895
544	21	2	-0.120000	29.468187	10.825683	3.080398
545	21	2	-0.120000	28.757143	9.631892	3.738300
546	21	2	-0.120000	29.426583	8.288090	3.412253
547	21	2	-0.120000	28.604205	7.117634	3.968553
548	21	6	0.145000	29.287546	5.768820	3.724585
549	21	4	-0.683000	29.318164	5.468230	2.354568
550	21	3	0.060000	31.461050	14.522864	3.034977
551	21	3	0.060000	29.840167	13.753382	2.953030
552	21	3	0.060000	30.738296	13.815309	4.526870
553	21	3	0.060000	31.561376	12.223203	1.998436
554	21	3	0.060000	32.560512	12.398182	3.477548
555	21	3	0.060000	31.491097	10.283922	3.661955
556	21	3	0.060000	30.657648	11.353835	4.836554
557	21	3	0.060000	28.792937	11.702994	3.164302
558	21	3	0.060000	29.623571	10.622358	1.998175
559	21	3	0.060000	28.715890	9.778107	4.840110
560	21	3	0.060000	27.710182	9.608736	3.363319
561	21	3	0.060000	30.442590	8.256707	3.859469
562	21	3	0.060000	29.518771	8.182957	2.309385
563	21	3	0.060000	28.472141	7.251175	5.064687
564	21	3	0.060000	27.596591	7.106849	3.497951
565	21	3	0.060000	30.312660	5.764587	4.163105
566	21	3	0.060000	28.703959	4.977876	4.241425
567	21	5	0.418000	30.172494	5.827766	1.999419
568	22	1	-0.180000	32.132438	7.858879	11.832656
569	22	2	-0.120000	32.306746	6.646229	10.918377
570	22	2	-0.120000	32.911313	7.010426	9.553205
571	22	2	-0.120000	34.407197	7.357852	9.645583
572	22	2	-0.120000	35.011323	7.733646	8.282730
573	22	2	-0.120000	35.193260	6.520126	7.358323
574	22	2	-0.120000	35.928093	6.918014	6.070903
575	22	6	0.145000	36.055825	5.743348	5.096421