
variable        infile index octanol.data   # The name of the (edited) data file

#>>>>>> Simulation settings <<<<<<<

units		 real		#angstroms = length -
atom_style	 full		#How the atoms are defined in the input data file
boundary        p p p           #periodic box in x, y and z
pair_style	 lj/cut/coul/long 14.0    #'lj/cut/coul/long 12.0' for your ethanol simulation
pair_modify     tail yes            #Tail corrections
pair_modify     mix arithmetic      #Lorentz-Berthelot pair interactions between dissimilar atom

# The settings below are additional settings you must add for your ethanol simulation as already detailed in your example NPT LAMMPS script in the tutorial
# For your ethanol homework, change/edit the pair_style line as advised above and uncomment the extra settings below and you should be good to go for this section.

special_bonds   lj/coul 0.0 0.0 0.5
kspace_style    ewald 0.0001
bond_style      harmonic
angle_style     harmonic
dihedral_style  opls


# >>> Using the variable command in LAMMPS to define inputs/settings for the simulation <<<<<<

variable   simulationTemp  index 360     #Simulation temperature
variable   simulationPress equal 0.987	#Simulation pressure

# Output files frequencies
variable        dumpfreq   index 1000          #Output frequency of dump information to dump
variable        thermofreq index 1000          #Output frequency of property information to log
variable        printfreq  index 1000          #Output frequency of information to be printed
variable        restartfreq index 1000000      #Output frequency of restart files


# Simulation run times (equilibration and production)
variable        NVT_equib  index 100000       # Equilibration run length (in timesteps)
variable        NVT_prod   index 30000       # Simulation run length  (in timesteps)


# Defining properties to output
# The first expression after the 'variable' command is a user defined name for the variable, it can be anything
# The expression after the 'equal' keyword are LAMMPS special/reserved terms for those property

variable    step        equal step
variable    density     equal density
variable    temp        equal temp
variable    press       equal press
variable    ke          equal ke
variable    pe          equal pe
variable    etotal      equal etotal
variable    enthalpy    equal enthalpy


# >>>>>>>>>>> Reading data, Neighbor list settings, energy minimization, assigning initial velocities & specifying thermodynamic property output style to log files <<<<<<<<<

read_data	${infile}
read_data	octanol.data
  orthogonal box = (0 0 0) to (40 40 40)
  3 by 4 by 4 MPI processor grid
  reading atoms ...
  5400 atoms
  scanning bonds ...
  1 = max bonds/atom
  scanning angles ...
  6 = max angles/atom
  scanning dihedrals ...
  10 = max dihedrals/atom
  reading bonds ...
  5200 bonds
  reading angles ...
  9800 angles
  reading dihedrals ...
  13200 dihedrals
  4 = max # of 1-2 neighbors
  6 = max # of 1-3 neighbors
  12 = max # of 1-4 neighbors
  16 = max # of special neighbors
  special bonds CPU = 0.0207205 secs
  read_data CPU = 0.0906242 secs
neighbor        1.0 bin
neigh_modify    delay 0 every 1 check yes page 1000000 one 20000
timestep        1.0

minimize        1e-4 1e-6 10000 100000        #Energy minimize before creating velocities
Ewald initialization ...
  using 12-bit tables for long-range coulomb (src/kspace.cpp:332)
  G vector (1/distance) = 0.140701
  estimated absolute RMS force accuracy = 0.0347754
  estimated relative force accuracy = 0.000104725
  KSpace vectors: actual max1d max3d = 128 4 364
                  kxmax kymax kzmax  = 4 4 4
Neighbor list info ...
  update every 1 steps, delay 0 steps, check yes
  max neighbors/atom: 20000, page size: 1000000
  master list distance cutoff = 15
  ghost atom cutoff = 15
  binsize = 7.5, bins = 6 6 6
  1 neighbor lists, perpetual/occasional/extra = 1 0 0
  (1) pair lj/cut/coul/long, perpetual
      attributes: half, newton on
      pair build: half/bin/newton
      stencil: half/bin/3d/newton
      bin: standard
Per MPI rank memory allocation (min/avg/max) = 23.62 | 23.67 | 23.84 Mbytes
Step Temp E_pair E_mol TotEng Press 
       0            0     3405.817    1701.0249    5106.8419    4097.4389 
     518            0   -2313.0078    889.32797   -1423.6798   -1232.5021 
Loop time of 6.25607 on 48 procs for 518 steps with 5400 atoms

59.9% CPU use with 48 MPI tasks x 1 OpenMP threads

Minimization stats:
  Stopping criterion = energy tolerance
  Energy initial, next-to-last, final = 
         5106.84193569     -1423.57203144     -1423.67981613
  Force two-norm initial, final = 3350.81 23.069
  Force max component initial, final = 845.808 2.76546
  Final line search alpha, max atom move = 0.0129189 0.0357266
  Iterations, force evaluations = 518 1030

MPI task timing breakdown:
Section |  min time  |  avg time  |  max time  |%varavg| %total
---------------------------------------------------------------
Pair    | 1.1101     | 2.443      | 3.915      |  44.0 | 39.05
Bond    | 0.055762   | 0.089049   | 0.1239     |   5.3 |  1.42
Kspace  | 0.43305    | 1.9057     | 3.2295     |  50.1 | 30.46
Neigh   | 0.13263    | 0.13659    | 0.14173    |   0.6 |  2.18
Comm    | 0.88141    | 1.0009     | 1.2012     |   8.3 | 16.00
Output  | 0          | 0          | 0          |   0.0 |  0.00
Modify  | 0          | 0          | 0          |   0.0 |  0.00
Other   |            | 0.6808     |            |       | 10.88

Nlocal:    112.5 ave 146 max 70 min
Histogram: 4 4 2 3 3 11 4 6 6 5
Nghost:    5652.17 ave 5831 max 5357 min
Histogram: 15 1 0 0 0 0 0 0 11 21
Neighs:    69014.7 ave 109982 max 28120 min
Histogram: 2 3 6 7 7 4 8 5 3 3

Total # of neighbors = 3312706
Ave neighs/atom = 613.464
Ave special neighs/atom = 10.4444
Neighbor list builds = 39
Dangerous builds = 0
#velocity	all create ${simulationTemp} 886874 mom yes rot yes dist gaussian

velocity        all create  ${simulationTemp} 317879265 units box
velocity        all create  360 317879265 units box
velocity        all zero linear units box

# The 'velocity' command line above assigns initial velocities to the atoms in our data file, see the LAMMPS 'velocity' command
# The number '886874' is the seed number which helps LAMMPS to consistently assign the same randomized velocities for the same simulation with the same seed number
# Changing that seed number for your simulation of a given system is one easy way to run an 'independent' simulation of the same system as taught in class
# You will need to do this for your homework

thermo_style    custom step vol temp press ke pe etotal enthalpy evdwl ecoul epair ebond eangle edihed eimp emol elong etail lx ly lz xy xz yz density
thermo          ${thermofreq}
thermo          1000

fix npt_density all npt temp ${simulationTemp} ${simulationTemp} 100 iso ${simulationPress} ${simulationPress} 1000
fix npt_density all npt temp 360 ${simulationTemp} 100 iso ${simulationPress} ${simulationPress} 1000
fix npt_density all npt temp 360 360 100 iso ${simulationPress} ${simulationPress} 1000
fix npt_density all npt temp 360 360 100 iso 0.987 ${simulationPress} 1000
fix npt_density all npt temp 360 360 100 iso 0.987 0.987 1000

run 50000
Ewald initialization ...
  using 12-bit tables for long-range coulomb (src/kspace.cpp:332)
  G vector (1/distance) = 0.140701
  estimated absolute RMS force accuracy = 0.0347754
  estimated relative force accuracy = 0.000104725
  KSpace vectors: actual max1d max3d = 128 4 364
                  kxmax kymax kzmax  = 4 4 4
Per MPI rank memory allocation (min/avg/max) = 22.49 | 22.55 | 22.87 Mbytes
Step Volume Temp Press KinEng PotEng TotEng Enthalpy E_vdwl E_coul E_pair E_bond E_angle E_dihed E_impro E_mol E_long E_tail Lx Ly Lz Xy Xz Yz Density 
     518        64000          360    2905.6172    5793.6216   -1423.6798    4369.9418    7081.9704   -2105.2356    4220.8927   -2313.0078    42.286151    240.31421     606.7276            0    889.32797   -4428.6649    -42.52282           40           40           40            0            0            0   0.67578079 
    1000      65349.8    270.40205   -1350.2574    4351.6866    3576.4213    7928.1079    6641.2318   -1624.1834    4366.3833   -1687.4259     1828.379    2478.5757    956.89249            0    5263.8472   -4429.6258   -41.644511    40.279254    40.279254    40.279254            0            0            0   0.66182254 
    2000    64712.777    370.82195   -953.41499    5967.7836    4599.6042    10567.388    9667.5838   -1447.2583    4367.8722   -1510.0514    1968.4599    3040.1535    1101.0421            0    6109.6556   -4430.6653   -42.054453    40.147947    40.147947    40.147947            0            0            0   0.66833742 
    3000    61876.563    361.43781   -859.69051    5816.7609    4278.2987     10095.06    9319.2695   -1513.7744    4338.0736   -1607.8169    1899.2399    2896.7037     1090.172            0    5886.1156   -4432.1161   -43.982088    39.552633    39.552633    39.552633            0            0            0   0.69897176 
    4000    60519.901    366.71314   -585.09548    5901.6589    4346.3174    10247.976    9731.5589   -1534.0799    4364.2506   -1601.5184     1929.932    2926.5424    1091.3615            0    5947.8359   -4431.6891   -44.968026    39.261426    39.261426    39.261426            0            0            0   0.71464047 
    5000    60260.336    358.93915    204.37254    5776.5489    4324.3948    10100.944    10280.554   -1494.3001    4287.7789   -1637.5163    1992.1772    2919.1548    1050.5792            0    5961.9112   -4430.9951    -45.16172    39.205216    39.205216    39.205216            0            0            0    0.7177187 
    6000    59661.327    359.24335    153.47441    5781.4446    4339.5089    10120.953    10254.491   -1532.7143     4343.118   -1621.3072    1923.4328    2967.5268    1069.8566            0    5960.8161   -4431.7109   -45.615151    39.074879    39.074879    39.074879            0            0            0   0.72492471 
    7000    59478.694    359.42308    35.665066    5784.3371    4271.1505    10055.488    10086.425   -1482.6839    4288.4168   -1626.4818    1971.9728     2891.383    1034.2765            0    5897.6323   -4432.2148   -45.755216    39.034966    39.034966    39.034966            0            0            0   0.72715064 
    8000    57985.656    362.70737    1130.5916    5837.1924    4128.5198    9965.7122     10921.81   -1580.3934    4292.4555   -1720.2743    1941.5596    2886.0372    1021.1973            0     5848.794   -4432.3364   -46.933339    38.705575    38.705575    38.705575            0            0            0   0.74587361 
    9000    58634.997    357.65534   -425.89378    5755.8881    4256.6081    10012.496    9648.3011   -1591.6771     4315.772   -1709.3013    1974.8719    2996.6318    994.40565            0    5965.9094   -4433.3962   -46.413586    38.849518    38.849518    38.849518            0            0            0   0.73761359 
   10000    57722.928    357.36917    590.86917    5751.2826    4125.9292    9877.2118    10374.623   -1585.7793    4294.0125   -1725.4789    1931.5888    2913.9429    1005.8764            0    5851.4082   -4433.7121   -47.146958    38.647029    38.647029    38.647029            0            0            0   0.74926848 
   11000     58376.07    356.46296   -1827.1535    5736.6986    4093.4517    9830.1504    8274.5939   -1572.6465    4236.9522   -1767.9341    1954.2825    2938.3548    968.74845            0    5861.3858   -4432.2399   -46.619453    38.792248    38.792248    38.792248            0            0            0   0.74088526 
   12000    57583.675    364.61574   -35.306647    5867.9046    4084.5598    9952.4643    9922.8139   -1623.1012    4276.3069   -1778.6518     1953.124     2937.672    972.41552            0    5863.2115   -4431.8574   -47.260973    38.615926    38.615926    38.615926            0            0            0   0.75108042 
   13000    58618.359    358.35379   -1583.1387    5767.1285    4110.2965     9877.425    8524.0177   -1596.7529    4265.1229   -1761.5659    1975.3735    2927.0753    969.41358            0    5871.8624    -4429.936    -46.42676    38.845843    38.845843    38.845843            0            0            0   0.73782295 
   14000    57414.428    362.00419    189.48167    5825.8758    3933.0579    9758.9337    9917.5925   -1647.7644    4253.1237   -1827.9886    1927.6725     2885.653    947.72099            0    5761.0465   -4433.3479   -47.400289    38.578057    38.578057    38.578057            0            0            0   0.75329446 
   15000    57886.277    360.28911   -154.52462    5798.2744    4050.5845    9848.8589    9718.4073   -1558.4638    4193.7594   -1799.2826    1940.8459    2919.6314    989.38983            0    5849.8671   -4434.5782   -47.013914    38.683451    38.683451    38.683451            0            0            0   0.74715412 
   16000    57690.873    354.68779    509.79079    5708.1301    3945.2566    9653.3868    10082.305   -1575.1462    4179.8731   -1827.5776    1937.2343    2875.6647    959.93521            0    5772.8342   -4432.3044   -47.173155    38.639874    38.639874    38.639874            0            0            0    0.7496848 
   17000    57599.359    358.99085    284.94209     5777.381    4001.0903    9778.4713     10017.83   -1630.8747    4287.0497   -1773.4085     1940.684    2883.3449    950.46989            0    5774.4988   -4429.5835   -47.248103    38.619432    38.619432    38.619432            0            0            0    0.7508759 
   18000    57132.514    358.58594     1083.269    5770.8646    4094.8195    9865.6841    10768.285   -1617.3156    4247.6135   -1802.0528    1993.4497     2961.563    941.85964            0    5896.8723   -4432.3507    -47.63418    38.514812    38.514812    38.514812            0            0            0    0.7570115 
   19000    57789.572    356.03089   -1229.2236    5729.7451    3950.1166    9679.8617    8643.8701   -1589.8258    4151.7517   -1870.2381    1936.9508      2940.43    942.97383            0    5820.3547    -4432.164   -47.092588    38.661897    38.661897    38.661897            0            0            0   0.74840441 
   20000    57335.194    357.16275   -377.30184    5747.9607    4042.2468    9790.2076    9474.7172   -1614.7039    4194.6193   -1851.4348     2010.839    2932.2977    950.54495            0    5893.6816   -4431.3502   -47.465793    38.560302    38.560302    38.560302            0            0            0   0.75433546 
   21000    57158.045    369.40244   -1593.6819    5944.9388    3955.0662     9900.005    8571.5254   -1630.3387    4163.9824   -1898.8512    2031.6927    2884.8967    937.32795            0    5853.9174   -4432.4949   -47.612903    38.520548    38.520548    38.520548            0            0            0   0.75667336 
   22000    56960.744     360.5725   -130.59234    5802.8351    3820.4764    9623.3115    9514.8266   -1672.2399    4208.6109    -1895.752    1921.4589    2877.1758    917.59369            0    5716.2284    -4432.123   -47.777825    38.476174    38.476174    38.476174            0            0            0   0.75929434 
   23000    57594.617    361.50263    300.20622    5817.8041    3981.4505    9799.2546    10051.415   -1638.1439    4210.1686    -1858.047    2021.0326    2872.7332    945.73176            0    5839.4975   -4430.0718   -47.251993    38.618372    38.618372    38.618372            0            0            0   0.75093771 
   24000    57327.252    359.37643    650.67532    5783.5863    3818.3555    9601.9418    10145.945    -1607.763    4137.1049   -1901.5706    1975.9854    2827.9743    915.96639            0    5719.9261   -4430.9125   -47.472369    38.558522    38.558522    38.558522            0            0            0   0.75443997 
   25000    57171.346     358.6606   -16.178703    5772.0662    3911.7185    9683.7846     9670.295   -1656.4816    4209.4685   -1877.6776    1919.1787    2928.0447    942.17271            0    5789.3961   -4430.6645   -47.601826    38.523536    38.523536    38.523536            0            0            0   0.75649733 
   26000    57301.766     364.2081   -680.21795    5861.3442    3942.5097    9803.8539    9235.4043   -1621.5508    4146.5031   -1906.5436    2010.1409    2907.3406    931.57182            0    5849.0534   -4431.4959   -47.493483    38.552807    38.552807    38.552807            0            0            0   0.75477552 
   27000    56691.859    359.26461    366.90382    5781.7867    3883.6291    9665.4158    9968.7691   -1639.6701    4168.8796   -1902.7409    1911.0346    2960.2865    915.04892            0      5786.37   -4431.9503   -48.004432    38.415536    38.415536    38.415536            0            0            0   0.76289561 
   28000     57599.86     359.9609    581.81483    5792.9923    3902.2892    9695.2815    10184.026   -1603.4484     4119.965   -1915.4104    1975.4109     2912.908    929.38061            0    5817.6995   -4431.9269   -47.247692    38.619544    38.619544    38.619544            0            0            0   0.75086937 
   29000    57419.322    362.52187    630.86441    5834.2071    3992.2149    9826.4221    10354.709   -1600.1456    4142.4243   -1888.0246    1980.3605    2954.1007    945.77837            0    5880.2396   -4430.3033   -47.396249    38.579153    38.579153    38.579153            0            0            0   0.75323025 
   30000    58149.009    360.81289    1910.0682    5806.7038    3969.0741     9775.778    11395.599    -1560.123    4130.7116   -1858.9053    1960.2741    2926.4702    941.23516            0    5827.9795   -4429.4939   -46.801494    38.741887    38.741887    38.741887            0            0            0   0.74377829 
   31000    57408.364    363.69872   -683.62511    5853.1465     3936.316    9789.4626    9217.1028   -1608.4403    4142.1811   -1897.2402    1989.9446    2895.0528    948.55882            0    5833.5562   -4430.9809   -47.405295    38.576699    38.576699    38.576699            0            0            0   0.75337402 
   32000    57183.914    353.45416   -301.42017    5688.2769    3901.0418    9589.3187    9337.9437   -1620.1102    4143.5891   -1908.1014     1954.686    2919.6739    934.78342            0    5809.1433   -4431.5803   -47.591364    38.526358    38.526358    38.526358            0            0            0   0.75633106 
   33000    56825.791    358.57989    211.05193    5770.7673    3706.0276    9476.7949    9651.7033   -1651.4022    4069.7002   -2013.3336    1932.2201    2868.9284    918.21269            0    5719.3612   -4431.6316    -47.89129    38.445764    38.445764    38.445764            0            0            0   0.76109755 
   34000    56437.345    362.29825     449.6146    5830.6083    3887.4531    9718.0613     10088.13    -1676.052     4156.498    -1953.086    1994.7615    2940.1601    905.61737            0     5840.539   -4433.5319   -48.220916    38.357962    38.357962    38.357962            0            0            0   0.76633602 
   35000    56923.664    366.15598    132.27968    5892.6923    3903.3913    9796.0836    9905.8987   -1641.0035    4133.0435   -1940.7605    1960.9712    2969.2923    913.88834            0    5844.1518   -4432.8005   -47.808947    38.467824    38.467824    38.467824            0            0            0   0.75978894 
   36000    56160.929    356.79808    896.92244    5742.0919    3775.7785    9517.8704    10252.494    -1666.407    4100.3852   -1999.6876    1937.2897    2944.5498    893.62668            0    5775.4661   -4433.6658   -48.458252    38.295237    38.295237    38.295237            0            0            0   0.77010782 
   37000    56883.507     361.3588    -556.5944    5815.4893    3842.1097     9657.599    9195.8552    -1667.198    4071.1349   -2028.7921    2021.6349    2907.1464    942.12044            0    5870.9018    -4432.729   -47.842698    38.458776    38.458776    38.458776            0            0            0   0.76032531 
   38000     55882.16    357.35211   -31.696377     5751.008     3645.035    9396.0431     9370.211   -1679.9468    4057.5002   -2054.8478    1918.4975    2890.7914    890.59388            0    5699.8828   -4432.4012   -48.699987    38.231769    38.231769    38.231769            0            0            0    0.7739495 
   39000    57011.505    363.79678   -387.94443    5854.7247    3791.6782    9646.4029    9323.8449    -1621.482    4057.8053   -1995.1746    1969.1398    2902.3837    915.32925            0    5786.8528    -4431.498   -47.735285      38.4876      38.4876      38.4876            0            0            0   0.75861828 
   40000    56542.499    353.09461   -102.36316    5682.4905    3977.7206    9660.2111     9575.801   -1664.2236    4082.0871   -2014.3048     2017.685    3052.7511    921.58922            0    5992.0253   -4432.1683   -48.131237     38.38177     38.38177     38.38177            0            0            0   0.76491083 
   41000    55956.577    366.65549   -401.72799    5900.7311    3733.3113    9634.0425    9306.2046   -1700.1363    4095.6526   -2037.4557    1907.3987    2946.0529    917.31545            0    5770.7671    -4432.972   -48.635221    38.248732    38.248732    38.248732            0            0            0   0.77292023 
   42000     56814.13    355.01622    148.05642    5713.4157    3726.2321    9439.6478    9562.3238    -1588.552    4005.9724   -2012.6045    1899.8333    2958.8278    880.17557            0    5738.8366   -4430.0249    -47.90112    38.443134    38.443134    38.443134            0            0            0   0.76125377 
   43000    56438.355    362.85066   -241.11828    5839.4984    3856.2745    9695.7729    9497.3095   -1652.4675    4120.0177    -1964.357    1980.3309    2956.9454    883.35517            0    5820.6314   -4431.9072   -48.220053    38.358191    38.358191    38.358191            0            0            0    0.7663223 
   44000    56972.398    366.16618   -508.74579    5892.8564    3756.2084    9649.0647     9226.356   -1603.8415    4055.2792    -1979.579    1933.8851    2904.7623    897.14001            0    5735.7873   -4431.0166   -47.768052    38.478798    38.478798    38.478798            0            0            0   0.75913902 
   45000    56645.731    359.60289   -175.95193    5787.2309    3783.7694    9571.0003    9425.6429    -1672.466    4017.7983   -2087.4753    2045.2681    2905.2466    920.73005            0    5871.2447   -4432.8077   -48.043523    38.405114    38.405114    38.405114            0            0            0   0.76351686 
   46000    56669.224    363.97118   -278.82835    5857.5315    3848.3622    9705.8937    9475.4525   -1630.7408    4053.9875   -2008.8239     2046.169    2915.3198    895.69735            0    5857.1861   -4432.0706   -48.023606    38.410423    38.410423    38.410423            0            0            0   0.76320033 
   47000    56948.653    354.15368    273.09394    5699.5346    3847.2146    9546.7491    9773.5639   -1652.2384    4114.1128   -1968.7984    2013.5201    2930.2669     872.2259            0     5816.013   -4430.6728   -47.787969    38.473452    38.473452    38.473452            0            0            0   0.75945554 
   48000    55718.969    355.38782    379.21649    5719.3959    3680.5259    9399.9218    9708.0746   -1668.0631    4088.4093   -2012.3156    1931.6945    2859.2164    901.93048            0    5692.8415   -4432.6618    -48.84262    38.194517    38.194517    38.194517            0            0            0   0.77621626 
   49000    56096.301    358.53233     341.6436    5770.0018    3848.4757    9618.4775    9897.9785   -1665.0674    4070.5347   -2023.9095    1973.0203    2978.1548    921.21008            0    5872.3852   -4429.3768    -48.51408    38.280542    38.280542    38.280542            0            0            0   0.77099505 
   50000    55456.319     362.4333   -710.07584    5832.7817    3759.1064    9591.8881    9017.5975   -1709.2231    4100.8787   -2040.5468    1985.1311    2908.0336    906.48854            0    5799.6532   -4432.2025   -49.073947    38.134408    38.134408    38.134408            0            0            0   0.77989255 
   50518    56334.442    366.25454     480.3163    5894.2784    3728.0134    9622.2918     10016.91   -1640.8496    4039.9609   -2033.8241    1943.2124    2919.7681    898.85694            0    5761.8375   -4432.9353   -48.308998    38.334635    38.334635    38.334635            0            0            0   0.76773584 
Loop time of 251.811 on 48 procs for 50000 steps with 5400 atoms

Performance: 17.156 ns/day, 1.399 hours/ns, 198.561 timesteps/s
64.9% CPU use with 48 MPI tasks x 1 OpenMP threads

MPI task timing breakdown:
Section |  min time  |  avg time  |  max time  |%varavg| %total
---------------------------------------------------------------
Pair    | 86.884     | 99.842     | 113.57     |  61.4 | 39.65
Bond    | 4.1369     | 4.6206     | 5.1909     |  10.3 |  1.83
Kspace  | 26.578     | 43.147     | 57.29      |  98.4 | 17.13
Neigh   | 19.599     | 20.682     | 21.552     |  14.8 |  8.21
Comm    | 46.417     | 53.315     | 62.194     |  48.5 | 21.17
Output  | 0.058591   | 0.059543   | 0.068718   |   0.6 |  0.02
Modify  | 18.756     | 23.646     | 27.527     |  43.8 |  9.39
Other   |            | 6.499      |            |       |  2.58

Nlocal:    112.5 ave 130 max 93 min
Histogram: 1 3 4 5 10 7 6 7 3 2
Nghost:    6312.08 ave 6365 max 6272 min
Histogram: 4 6 5 8 6 8 4 4 1 2
Neighs:    76213.6 ave 87815 max 64931 min
Histogram: 5 1 7 6 8 4 4 5 4 4

Total # of neighbors = 3658252
Ave neighs/atom = 677.454
Ave special neighs/atom = 10.4444
Neighbor list builds = 6224
Dangerous builds = 0

unfix npt_density

fix reshape_box all deform 1 x final 0.0 37.4456 y final 0.0 37.4456 z final 0.0 37.4456 units box

run 100000
Ewald initialization ...
  using 12-bit tables for long-range coulomb (src/kspace.cpp:332)
  G vector (1/distance) = 0.141853
  estimated absolute RMS force accuracy = 0.0340694
  estimated relative force accuracy = 0.000102599
  KSpace vectors: actual max1d max3d = 128 4 364
                  kxmax kymax kzmax  = 4 4 4
Per MPI rank memory allocation (min/avg/max) = 22.51 | 22.56 | 22.89 Mbytes
Step Volume Temp Press KinEng PotEng TotEng Enthalpy E_vdwl E_coul E_pair E_bond E_angle E_dihed E_impro E_mol E_long E_tail Lx Ly Lz Xy Xz Yz Density 
   50518    56334.442    366.25454    480.53559    5894.2784    3728.0428    9622.3212     10017.12   -1640.8496     4076.145   -2033.7947    1943.2124    2919.7681    898.85694            0    5761.8375   -4469.0901   -48.308998    38.334635    38.334635    38.334635            0            0            0   0.76773584 
   51000    56315.553    366.25454    724.53995    5894.2784    3726.9369    9621.2153    10216.283   -1639.3343     4076.146   -2032.2802    1940.5921    2919.7681    898.85694            0    5759.2172   -4469.0919   -48.325202     38.33035     38.33035     38.33035            0            0            0   0.76799336 
   52000    56276.376    366.25454    1232.8167    5894.2784    3724.9864    9619.2647    10631.078   -1636.1701    4076.2838   -2028.9821    1935.3434    2919.7681    898.85694            0    5753.9685   -4469.0958   -48.358843     38.32146     38.32146     38.32146            0            0            0   0.76852799 
   53000    56237.218    366.25454    1740.6992    5894.2784    3723.0686     9617.347    11045.003   -1632.9855    4076.1652   -2025.9199    1930.3634    2919.7681    898.85694            0    5748.9885   -4469.0996   -48.392516    38.312569    38.312569    38.312569            0            0            0   0.76906312 
   54000    56198.078    366.25454    2249.5916    5894.2784    3721.5389    9615.8173    11459.563   -1629.7813    4076.1463   -2022.7384    1925.6522    2919.7681    898.85694            0    5744.2773   -4469.1035    -48.42622    38.303679    38.303679    38.303679            0            0            0   0.76959875 
   55000    56158.956    366.25454    2758.9078    5894.2784    3720.2492    9614.5276     11874.13   -1626.5541    4076.0758   -2019.5857    1921.2098    2919.7681    898.85694            0    5739.8349   -4469.1073   -48.459955    38.294788    38.294788    38.294788            0            0            0   0.77013487 
   56000    56119.852    366.25454    3269.2724    5894.2784    3719.3559    9613.6343    12289.372   -1623.3086    4076.1145   -2016.3053    1917.0361    2919.7681    898.85694            0    5735.6612   -4469.1112   -48.493721    38.285898    38.285898    38.285898            0            0            0   0.77067149 
   57000    56080.767    366.25454    3780.0197    5894.2784    3718.6913    9612.9697    12704.574   -1620.0426    4076.0927    -2013.065    1913.1312    2919.7681    898.85694            0    5731.7563    -4469.115   -48.527519    38.277008    38.277008    38.277008            0            0            0   0.77120862 
   58000    56041.699    366.25454     4291.324    5894.2784    3718.2996     9612.578    13119.923   -1616.7547    4076.0531   -2009.8205     1909.495    2919.7681    898.85694            0    5728.1201   -4469.1189   -48.561348    38.268117    38.268117    38.268117            0            0            0   0.77174624 
   59000     56002.65    366.25454    4802.8595    5894.2784    3718.0986     9612.377     13535.07    -1613.444    4075.9127   -2006.6541    1906.1276    2919.7681    898.85694            0    5724.7527   -4469.1227   -48.595209    38.259227    38.259227    38.259227            0            0            0   0.77228436 
   60000    55963.619    366.25454    5314.8746    5894.2784    3718.1495    9612.4278     13950.28   -1610.1149     4075.737   -2003.5045    1903.0289    2919.7681    898.85694            0     5721.654   -4469.1266   -48.629101    38.250337    38.250337    38.250337            0            0            0   0.77282298 
   61000    55924.606    366.25454     5827.488    5894.2784    3718.4835    9612.7619    14365.679    -1606.763    4075.5529   -2000.3405     1900.199    2919.7681    898.85694            0    5718.8241   -4469.1304   -48.663025    38.241446    38.241446    38.241446            0            0            0    0.7733621 
   62000    55885.611    366.25454    6340.8804    5894.2784    3719.1445    9613.4229    14781.458    -1603.391    4075.4069   -1997.1184    1897.6378    2919.7681    898.85694            0    5716.2629   -4469.1343    -48.69698    38.232556    38.232556    38.232556            0            0            0   0.77390172 
   63000    55846.634    366.25454    6855.5215    5894.2784    3720.2513    9614.5296    15198.118   -1599.9969    4075.4158   -1993.7192    1895.3454    2919.7681    898.85694            0    5713.9705   -4469.1381   -48.730967    38.223666    38.223666    38.223666            0            0            0   0.77444185 
   64000    55807.675    366.25454    7370.7521    5894.2784    3721.6366    9615.9149    15614.953   -1596.5837    4075.4154   -1990.3103    1893.3217    2919.7681    898.85694            0    5711.9468    -4469.142   -48.764985    38.214775    38.214775    38.214775            0            0            0   0.77498248 
   65000    55768.735    366.25454    7886.2331    5894.2784    3723.2169    9617.4952    16031.604   -1593.1461    4075.3169    -1986.975    1891.5668    2919.7681    898.85694            0    5710.1919   -4469.1458   -48.799035    38.205885    38.205885    38.205885            0            0            0   0.77552361 
   66000    55729.812    366.25454    8401.9923    5894.2784    3724.9973    9619.2756    16448.097   -1589.6889    4075.1301   -1983.7085    1890.0807    2919.7681    898.85694            0    5708.7057   -4469.1496   -48.833117    38.196995    38.196995    38.196995            0            0            0   0.77606524 
   67000    55690.908    366.25454    8917.3302    5894.2784    3726.8032    9621.0815     16863.69   -1586.2097     4074.678   -1980.6852    1888.8633    2919.7681    898.85694            0    5707.4883   -4469.1535   -48.867231    38.188104    38.188104    38.188104            0            0            0   0.77660738 
   68000    55652.022    366.25454    9435.0539    5894.2784    3729.3377     9623.616    17281.367   -1582.7095    4074.6648    -1977.202    1887.9146    2919.7681    898.85694            0    5706.5397   -4469.1573   -48.901376    38.179214    38.179214    38.179214            0            0            0   0.77715003 
   69000    55613.154    366.25454    9954.4456    5894.2784    3732.4207     9626.699     17700.36   -1579.1865    4074.9085   -1973.4391    1887.2347    2919.7681    898.85694            0    5705.8598   -4469.1612   -48.935553    38.170324    38.170324    38.170324            0            0            0   0.77769318 
   70000    55574.304    366.25454    10473.389    5894.2784    3735.5215    9629.7998    18118.421    -1575.642    4074.8798   -1969.9272    1886.8235    2919.7681    898.85694            0    5705.4486    -4469.165   -48.969763    38.161433    38.161433    38.161433            0            0            0   0.77823683 
   71000    55535.472    366.25454    10992.276    5894.2784    3738.7382    9633.0165    18535.968   -1572.0763     4074.677   -1966.5681    1886.6812    2919.7681    898.85694            0    5705.3062   -4469.1688   -49.004003    38.152543    38.152543    38.152543            0            0            0     0.778781 
   72000    55496.658    366.25454    11512.615    5894.2784    3742.4488    9636.7271    18954.599   -1568.4867    4074.6756   -1962.9838    1886.8075    2919.7681    898.85694            0    5705.4326   -4469.1727   -49.038276    38.143653    38.143653    38.143653            0            0            0   0.77932567 
   73000    55457.863    366.25454    12033.637    5894.2784    3746.4588    9640.7371    19373.495   -1564.8772    4074.6848   -1959.3689    1887.2026    2919.7681    898.85694            0    5705.8277   -4469.1765   -49.072581    38.134762    38.134762    38.134762            0            0            0   0.77987085 
   74000    55419.085    366.25454    12554.422    5894.2784    3750.5401    9644.8185    19791.685   -1561.2444    4074.4733   -1955.9514    1887.8665    2919.7681    898.85694            0    5706.4916   -4469.1803   -49.106918    38.125872    38.125872    38.125872            0            0            0   0.78041654 
   75000    55380.325    366.25454    13076.369    5894.2784    3755.0414    9649.3198    20210.649   -1557.5888    4074.3902   -1952.3828    1888.7991    2919.7681    898.85694            0    5707.4242   -4469.1842   -49.141287    38.116981    38.116981    38.116981            0            0            0   0.78096273 
   76000    55341.584    366.25454    13599.337    5894.2784    3759.9258    9654.2042    20630.232    -1553.912    4074.4003   -1948.6997    1890.0005    2919.7681    898.85694            0    5708.6256    -4469.188   -49.175688    38.108091    38.108091    38.108091            0            0            0   0.78150944 
   77000    55302.861    366.25454    14122.229    5894.2784    3764.9211    9659.1995    21049.278   -1550.2128    4074.2301   -1945.1745    1891.4706    2919.7681    898.85694            0    5710.0957   -4469.1918   -49.210121    38.099201    38.099201    38.099201            0            0            0   0.78205666 
   78000    55264.155    366.25454    14645.516    5894.2784    3770.1441    9664.4224    21468.284   -1546.4915    4073.9967   -1941.6905    1893.2095    2919.7681    898.85694            0    5711.8346   -4469.1957   -49.244586     38.09031     38.09031     38.09031            0            0            0   0.78260439 
   79000    55225.468    366.25454    15171.078    5894.2784    3776.0623    9670.3407     21889.23   -1542.7459    4074.1656   -1937.7798    1895.2171    2919.7681    898.85694            0    5713.8422   -4469.1995   -49.279084     38.08142     38.08142     38.08142            0            0            0   0.78315263 
   80000    55186.799    366.25454    15697.637    5894.2784    3782.3567     9676.635    22310.766   -1538.9787    4074.4201   -1933.7619    1897.4935    2919.7681    898.85694            0    5716.1186   -4469.2033   -49.313613     38.07253     38.07253     38.07253            0            0            0   0.78370138 
   81000    55148.148    366.25454    16223.088    5894.2784    3788.5047     9682.783    22730.675   -1535.1888    4074.2369    -1930.159    1900.0386    2919.7681    898.85694            0    5718.6637   -4469.2072   -49.348175    38.063639    38.063639    38.063639            0            0            0   0.78425064 
   82000    55109.515    366.25454    16749.399    5894.2784    3794.9958    9689.2741     23151.03   -1531.3738    4074.1029   -1926.4818    1902.8525    2919.7681    898.85694            0    5721.4776    -4469.211    -49.38277    38.054749    38.054749    38.054749            0            0            0   0.78480042 
   83000      55070.9    366.25454    17276.728    5894.2784    3801.8671    9696.1455    23571.994   -1527.5383      4074.06   -1922.6931    1905.9351    2919.7681    898.85694            0    5724.5602   -4469.2148   -49.417396    38.045859    38.045859    38.045859            0            0            0   0.78535071 
   84000    55032.303    366.25454    17803.846    5894.2784    3808.8145    9703.0929    23992.276   -1523.6799    4073.8015   -1919.0971    1909.2865    2919.7681    898.85694            0    5727.9116   -4469.2186   -49.452055    38.036968    38.036968    38.036968            0            0            0   0.78590152 
   85000    54993.724    366.25454    18333.626    5894.2784    3816.5497    9710.8281    24414.892   -1519.7981    4074.0385    -1914.982    1912.9067    2919.7681    898.85694            0    5731.5318   -4469.2225   -49.486747    38.028078    38.028078    38.028078            0            0            0   0.78645284 
   86000    54955.163    366.25454    18863.856    5894.2784    3824.5243    9718.8026    24837.517   -1515.8929    4074.2228   -1910.8964    1916.7956    2919.7681    898.85694            0    5735.4206   -4469.2263    -49.52147    38.019188    38.019188    38.019188            0            0            0   0.78700468 
   87000     54916.62    366.25454     19395.99    5894.2784     3833.097    9727.3754    25261.674   -1511.9649    4074.7138   -1906.4813    1920.9532    2919.7681    898.85694            0    5739.5783   -4469.2301   -49.556227    38.010297    38.010297    38.010297            0            0            0   0.78755704 
   88000    54878.095    366.25454    19926.161    5894.2784    3841.3128    9735.5912    25683.309   -1508.0117    4074.5538   -1902.6919    1925.3796    2919.7681    898.85694            0    5744.0047   -4469.2339   -49.591016    38.001407    38.001407    38.001407            0            0            0   0.78810991 
   89000    54839.588    366.25454    20457.695    5894.2784    3849.9933    9744.2717     26105.91   -1504.0353    4074.5666   -1898.7065    1930.0748    2919.7681    898.85694            0    5748.6999   -4469.2378   -49.625837    37.992517    37.992517    37.992517            0            0            0    0.7886633 
   90000    54801.099    366.25454    20989.022    5894.2784    3858.7498    9753.0282    26527.829   -1500.0358    4074.3634   -1894.9139    1935.0387    2919.7681    898.85694            0    5753.6638   -4469.2416   -49.660691    37.983626    37.983626    37.983626            0            0            0    0.7892172 
   91000    54762.629    366.25454    21521.262    5894.2784      3867.86    9762.1384     26950.24   -1496.0103    4074.2193   -1891.0364    1940.2713    2919.7681    898.85694            0    5758.8964   -4469.2454   -49.695578    37.974736    37.974736    37.974736            0            0            0   0.78977163 
   92000    54724.176    366.25454    22055.568    5894.2784    3877.6056    9771.8839    27374.344   -1491.9639    4074.4209   -1886.7922    1945.7728    2919.7681    898.85694            0    5764.3978   -4469.2492   -49.730497    37.965846    37.965846    37.965846            0            0            0   0.79032657 
   93000    54685.741    366.25454    22590.053    5894.2784    3887.5215    9781.7999    27798.167   -1487.8953    4074.5018   -1882.6465    1951.5429    2919.7681    898.85694            0     5770.168    -4469.253   -49.765449    37.956955    37.956955    37.956955            0            0            0   0.79088204 
   94000    54647.324    366.25454    23125.353    5894.2784    3897.7654    9792.0438    28222.376   -1483.8019    4074.6172   -1878.4415    1957.5818    2919.7681    898.85694            0    5776.2069   -4469.2568   -49.800434    37.948065    37.948065    37.948065            0            0            0   0.79143803 
   95000    54608.925    366.25454    23660.026    5894.2784    3907.9824    9802.2608    28645.465   -1479.6831    4074.4116   -1874.5322    1963.8895    2919.7681    898.85694            0    5782.5146   -4469.2607   -49.835452    37.939174    37.939174    37.939174            0            0            0   0.79199453 
   96000    54570.545    366.25454    24194.837    5894.2784    3918.3597    9812.6381     29068.23   -1475.5415    4074.0747   -1870.7313    1970.4659    2919.7681    898.85694            0     5789.091   -4469.2645   -49.870502    37.930284    37.930284    37.930284            0            0            0   0.79255156 
   97000    54532.182    366.25454    24732.704    5894.2784    3929.6141    9823.8924    29493.711   -1471.3757    4074.3219   -1866.3221    1977.3111    2919.7681    898.85694            0    5795.9362   -4469.2683   -49.905586    37.921394    37.921394    37.921394            0            0            0   0.79310911 
   98000    54493.837    366.25454    25269.751    5894.2784    3940.7954    9835.0738    29917.872   -1467.1809    4074.1983   -1862.2547     1984.425    2919.7681    898.85694            0    5803.0501   -4469.2721   -49.940702    37.912503    37.912503    37.912503            0            0            0   0.79366719 
   99000     54455.51    366.25454    25807.307    5894.2784    3952.2266     9846.505    30342.094   -1462.9646    4074.0343   -1858.2062    1991.8077    2919.7681    898.85694            0    5810.4328   -4469.2759   -49.975851    37.903613    37.903613    37.903613            0            0            0   0.79422579 
  100000    54417.201    366.25454    26344.645    5894.2784    3963.7309    9858.0093    30765.622   -1458.7241    4073.6504   -1854.3534    1999.4592    2919.7681    898.85694            0    5818.0842   -4469.2797   -50.011033    37.894723    37.894723    37.894723            0            0            0   0.79478491 
  101000     54378.91    366.25454    26883.362    5894.2784    3975.7002    9869.9785    31190.115   -1454.4566    4073.4359   -1850.3043    2007.3794    2919.7681    898.85694            0    5826.0044   -4469.2835   -50.046249    37.885832    37.885832    37.885832            0            0            0   0.79534456 
  102000    54340.637    366.25454    27424.053    5894.2784    3988.2769    9882.5553    31616.184   -1450.1673    4073.5382   -1845.9164    2015.5683    2919.7681    898.85694            0    5834.1934   -4469.2873   -50.081497    37.876942    37.876942    37.876942            0            0            0   0.79590473 
  103000    54302.382    366.25454    27964.365    5894.2784    4000.8876     9895.166    32041.392   -1445.8516    4073.3793   -1841.7635     2024.026    2919.7681    898.85694            0    5842.6511   -4469.2912   -50.116778    37.868052    37.868052    37.868052            0            0            0   0.79646543 
  104000    54264.145    366.25454    28505.992    5894.2784    4013.9448    9908.2231    32467.492   -1441.5113    4073.3735   -1837.4328    2032.7524    2919.7681    898.85694            0    5851.3775    -4469.295   -50.152093    37.859161    37.859161    37.859161            0            0            0   0.79702666 
  105000    54225.926    366.25454    29047.128    5894.2784    4027.0088    9921.2871    32892.613   -1437.1439    4073.0788   -1833.3639    2041.7476    2919.7681    898.85694            0    5860.3727   -4469.2988   -50.187441    37.850271    37.850271    37.850271            0            0            0   0.79758841 
  106000    54187.725    366.25454    29589.717    5894.2784    4040.5525    9934.8309    33318.767   -1432.7518    4072.9702   -1829.0842    2051.0116    2919.7681    898.85694            0    5869.6367   -4469.3026   -50.222822    37.841381    37.841381    37.841381            0            0            0   0.79815069 
  107000    54149.542    366.25454    30133.408    5894.2784    4054.4887     9948.767    33745.587   -1428.3377    4072.9633   -1824.6807    2060.5443    2919.7681    898.85694            0    5879.1694   -4469.3064   -50.258236     37.83249     37.83249     37.83249            0            0            0    0.7987135 
  108000    54111.377    366.25454    30676.496    5894.2784    4068.4042    9962.6825    34171.314   -1423.8957    4072.6392   -1820.5667    2070.3458    2919.7681    898.85694            0    5888.9708   -4469.3102   -50.293684      37.8236      37.8236      37.8236            0            0            0   0.79927684 
  109000    54073.229    366.25454    31219.917    5894.2784    4082.5261    9976.8045    34596.912    -1419.428     4072.227    -1816.515     2080.416    2919.7681    898.85694            0    5899.0411    -4469.314   -50.329165     37.81471     37.81471     37.81471            0            0            0   0.79984071 
  110000      54035.1    366.25454    31766.256    5894.2784    4097.4827    9991.7611    35025.048   -1414.9342    4072.3547   -1811.8973    2090.7549    2919.7681    898.85694            0      5909.38   -4469.3178   -50.364679    37.805819    37.805819    37.805819            0            0            0   0.80040511 
  111000    53996.989    366.25454    32312.804    5894.2784    4112.6149    10006.893    35452.926   -1410.4145    4072.3633   -1807.3728    2101.3626    2919.7681    898.85694            0    5919.9877   -4469.3216   -50.400227    37.796929    37.796929    37.796929            0            0            0   0.80097004 
  112000    53958.895    366.25454    32858.928    5894.2784    4127.7678    10022.046    35879.891   -1405.8711    4072.1001   -1803.0964    2112.2391    2919.7681    898.85694            0    5930.8642   -4469.3254   -50.435808    37.788039    37.788039    37.788039            0            0            0   0.80153551 
  113000    53920.819    366.25454    33407.808    5894.2784    4143.7154    10037.994     36309.22   -1401.2986    4072.3338    -1798.294    2123.3843    2919.7681    898.85694            0    5942.0094   -4469.3292   -50.471423    37.779148    37.779148    37.779148            0            0            0    0.8021015 
  114000    53882.762    366.25454    33956.628    5894.2784    4159.7717     10054.05    36738.011   -1396.7014    4072.3827   -1793.6517    2134.7983    2919.7681    898.85694            0    5953.4234    -4469.333   -50.507071    37.770258    37.770258    37.770258            0            0            0   0.80266803 
  115000    53844.722    366.25454    34505.826    5894.2784    4176.0429    10070.321    37166.713   -1392.0801    4072.3536   -1789.0632     2146.481    2919.7681    898.85694            0    5965.1061   -4469.3368   -50.542753    37.761367    37.761367    37.761367            0            0            0   0.80323509 
  116000      53806.7    366.25454    35055.637    5894.2784    4192.5876    10086.866    37595.569   -1387.4296    4072.3001     -1784.47    2158.4325    2919.7681    898.85694            0    5977.0576   -4469.3406   -50.578468    37.752477    37.752477    37.752477            0            0            0   0.80380269 
  117000    53768.696    366.25454    35606.157    5894.2784    4209.4271    10103.705    38024.675   -1382.7541    4072.2478   -1779.8507    2170.6528    2919.7681    898.85694            0    5989.2778   -4469.3444   -50.614217    37.743587    37.743587    37.743587            0            0            0   0.80437082 
  118000     53730.71    366.25454    36156.053    5894.2784    4226.2393    10120.518    38452.664   -1378.0519    4071.8725   -1775.5275    2183.1417    2919.7681    898.85694            0    6001.7668   -4469.3482       -50.65    37.734696    37.734696    37.734696            0            0            0   0.80493949 
  119000    53692.742    366.25454    36707.078    5894.2784    4243.4487    10137.727    38881.335   -1373.3218    4071.5979   -1771.0759    2195.8995    2919.7681    898.85694            0    6014.5246    -4469.352   -50.685816    37.725806    37.725806    37.725806            0            0            0   0.80550869 
  120000    53654.792    366.25454    37259.842    5894.2784    4261.2007    10155.479    39311.309   -1368.5678    4071.5732   -1766.3504     2208.926    2919.7681    898.85694            0    6027.5511   -4469.3558   -50.721667    37.716916    37.716916    37.716916            0            0            0   0.80607843 
  121000    53616.859    366.25454    37813.442    5894.2784    4279.2781    10173.556     39741.66   -1363.7853    4071.5767   -1761.5682    2222.2212    2919.7681    898.85694            0    6040.8463   -4469.3596   -50.757551    37.708025    37.708025    37.708025            0            0            0   0.80664871 
  122000    53578.945    366.25454    38367.932    5894.2784     4297.693    10191.971    40172.441   -1358.9762    4071.6223   -1756.7173    2235.7852    2919.7681    898.85694            0    6054.4103   -4469.3633   -50.793469    37.699135    37.699135    37.699135            0            0            0   0.80721952 
  123000    53541.048    366.25454    38921.866    5894.2784    4316.0972    10210.376    40602.175   -1354.1382    4071.3594   -1752.1459     2249.618    2919.7681    898.85694            0    6068.2431   -4469.3671   -50.829421    37.690245    37.690245    37.690245            0            0            0   0.80779088 
  124000     53503.17    366.25454    39477.401    5894.2784    4335.0094    10229.288    41033.064   -1349.2746    4071.3103   -1747.3352    2263.7195    2919.7681    898.85694            0    6082.3446   -4469.3709   -50.865406    37.681354    37.681354    37.681354            0            0            0   0.80836277 
  125000    53465.309    366.25454    40032.615    5894.2784    4353.9667    10248.245    41463.143   -1344.3848    4071.0114   -1742.7481    2278.0897    2919.7681    898.85694            0    6096.7148   -4469.3747   -50.901426    37.672464    37.672464    37.672464            0            0            0    0.8089352 
  126000    53427.466    366.25454    40590.733    5894.2784    4373.7454    10268.024    41895.705   -1339.4656    4071.2357   -1737.6084    2292.7287    2919.7681    898.85694            0    6111.3538   -4469.3785    -50.93748    37.663574    37.663574    37.663574            0            0            0   0.80950818 
  127000     53389.64    366.25454    41148.952    5894.2784    4393.6707    10287.949    42327.887    -1334.519    4071.3103   -1732.5909    2307.6365    2919.7681    898.85694            0    6126.2616   -4469.3823   -50.973568    37.654683    37.654683    37.654683            0            0            0   0.81008169 
  128000    53351.833    366.25454    41706.117    5894.2784     4413.464    10307.742    42758.511   -1329.5462    4070.9582   -1727.9741     2322.813    2919.7681    898.85694            0    6141.4381   -4469.3861    -51.00969    37.645793    37.645793    37.645793            0            0            0   0.81065575 
  129000    53314.044    366.25454    42265.855    5894.2784    4433.9968    10328.275    43191.272   -1324.5459    4071.0492   -1722.8865    2338.2583    2919.7681    898.85694            0    6156.8834   -4469.3899   -51.045846    37.636903    37.636903    37.636903            0            0            0   0.81123035 
  130000    53276.272    366.25454    42824.223    5894.2784    4454.3237    10348.602    43622.157    -1319.516    4070.6359   -1718.2737    2353.9723    2919.7681    898.85694            0    6172.5974   -4469.3936   -51.082036    37.628012    37.628012    37.628012            0            0            0   0.81180549 
  131000    53238.518    366.25454     43383.16    5894.2784    4474.9086    10369.187    44053.139   -1314.4591     4070.185   -1713.6715    2369.9551    2919.7681    898.85694            0    6188.5802   -4469.3974   -51.118261    37.619122    37.619122    37.619122            0            0            0   0.81238118 
  132000    53200.782    366.25454    43945.187    5894.2784    4496.3553    10390.634    44486.775   -1309.3739    4070.2987   -1708.4764    2386.2066    2919.7681    898.85694            0    6204.8317   -4469.4012   -51.154519    37.610232    37.610232    37.610232            0            0            0   0.81295741 
  133000    53163.064    366.25454    44507.261    5894.2784    4517.9337    10412.212    44919.971   -1304.2621    4070.2488   -1703.4183    2402.7269    2919.7681    898.85694            0     6221.352    -4469.405   -51.190813    37.601341    37.601341    37.601341            0            0            0   0.81353419 
  134000    53125.364    366.25454    45070.661    5894.2784    4539.9502    10434.229    45354.028   -1299.1225    4070.3404   -1698.1908    2419.5159    2919.7681    898.85694            0     6238.141   -4469.4088    -51.22714    37.592451    37.592451    37.592451            0            0            0   0.81411151 
  135000    53087.682    366.25454    45633.921    5894.2784    4562.0547    10456.333    45787.456   -1293.9528    4070.2212   -1693.1441    2436.5737    2919.7681    898.85694            0    6255.1988   -4469.4125   -51.263502     37.58356     37.58356     37.58356            0            0            0   0.81468938 
  136000    53050.017    366.25454    46197.289    5894.2784    4584.3062    10478.585    46220.507   -1288.7538     4069.951   -1688.2191    2453.9002    2919.7681    898.85694            0    6272.5253   -4469.4163   -51.299898     37.57467     37.57467     37.57467            0            0            0   0.81526779 
  137000     53012.37    366.25454    46762.665    5894.2784    4607.1566    10501.435    46655.103    -1283.529    4069.9851    -1682.964    2471.4955    2919.7681    898.85694            0    6290.1206   -4469.4201   -51.336329     37.56578     37.56578     37.56578            0            0            0   0.81584675 
  138000    52974.741    366.25454    47327.545    5894.2784    4630.0099    10524.288     47088.71   -1278.2733    4069.7224   -1677.9747    2489.3596    2919.7681    898.85694            0    6307.9846   -4469.4239   -51.372794    37.556889    37.556889    37.556889            0            0            0   0.81642627 
  139000     52937.13    366.25454    47893.755    5894.2784    4653.3013     10547.58    47523.175   -1272.9877    4069.5992   -1672.8161    2507.4923    2919.7681    898.85694            0    6326.1174   -4469.4276   -51.409293    37.547999    37.547999    37.547999            0            0            0   0.81700633 
  140000    52899.537    366.25454    48460.543    5894.2784    4676.8493    10571.128    47957.734   -1267.6759    4069.4377   -1667.6697    2525.8939    2919.7681    898.85694            0     6344.519   -4469.4314   -51.445828    37.539109    37.539109    37.539109            0            0            0   0.81758694 
  141000    52861.961    366.25454    49028.398    5894.2784    4700.7723    10595.051     48392.88   -1262.3325    4069.3507    -1662.417    2544.5642    2919.7681    898.85694            0    6363.1893   -4469.4352   -51.482397    37.530218    37.530218    37.530218            0            0            0    0.8181681 
  142000    52824.404    366.25454    49597.233    5894.2784    4725.0477    10619.326    48828.526   -1256.9622    4069.3205   -1657.0807    2563.5033    2919.7681    898.85694            0    6382.1283    -4469.439      -51.519    37.521328    37.521328    37.521328            0            0            0   0.81874981 
  143000    52786.864    366.25454    50167.144    5894.2784    4749.6989    10643.977    49264.765   -1251.5594    4069.3649   -1651.6373    2582.7111    2919.7681    898.85694            0    6401.3361   -4469.4427   -51.555638    37.512438    37.512438    37.512438            0            0            0   0.81933207 
  144000    52749.342    366.25454    50737.361    5894.2784    4774.5421     10668.82    49700.821   -1246.1289    4069.3048   -1646.2706    2602.1876    2919.7681    898.85694            0    6420.8127   -4469.4465   -51.592312    37.503547    37.503547    37.503547            0            0            0   0.81991488 
  145000    52711.837    366.25454     51308.49    5894.2784    4799.7208    10693.999    50137.302   -1240.6693    4069.2824   -1640.8372    2621.9329    2919.7681    898.85694            0     6440.558   -4469.4503   -51.629019    37.494657    37.494657    37.494657            0            0            0   0.82049825 
  146000    52674.351    366.25454    51879.742    5894.2784    4825.0474    10719.326    50573.415   -1235.1807      4069.11   -1635.5247     2641.947    2919.7681    898.85694            0    6460.5721    -4469.454   -51.665762    37.485767    37.485767    37.485767            0            0            0   0.82108217 
  147000    52636.882    366.25454    52451.795    5894.2784     4850.684    10744.962    51009.841   -1229.6589    4068.9458   -1630.1709    2662.2298    2919.7681    898.85694            0    6480.8549   -4469.4578    -51.70254    37.476876    37.476876    37.476876            0            0            0   0.82166665 
  148000    52599.431    366.25454    53024.727    5894.2784    4876.6474    10770.926    51446.657   -1224.1096    4068.8121   -1624.7591    2682.7814    2919.7681    898.85694            0    6501.4065   -4469.4616   -51.739352    37.467986    37.467986    37.467986            0            0            0   0.82225168 
  149000    52561.998    366.25454    53597.727    5894.2784    4902.7462    10797.025    51883.049   -1218.5281    4068.5129   -1619.4805    2703.6017    2919.7681    898.85694            0    6522.2268   -4469.4653   -51.776199    37.459096    37.459096    37.459096            0            0            0   0.82283727 
  150000    52524.582    366.25454    54172.761    5894.2784    4929.4437    10823.722    52320.986   -1212.9181    4068.5151   -1613.8722    2724.6908    2919.7681    898.85694            0    6543.3159   -4469.4691   -51.813082    37.450205    37.450205    37.450205            0            0            0   0.82342341 
  150518    52505.208    366.25454    54470.752    5894.2784    4943.3485    10837.627    52547.766   -1210.0014    4068.4753   -1610.9972    2735.7206    2919.7681    898.85694            0    6554.3457    -4469.471   -51.832201      37.4456      37.4456      37.4456            0            0            0   0.82372725 
Loop time of 401.106 on 48 procs for 100000 steps with 5400 atoms

Performance: 21.540 ns/day, 1.114 hours/ns, 249.310 timesteps/s
69.1% CPU use with 48 MPI tasks x 1 OpenMP threads

MPI task timing breakdown:
Section |  min time  |  avg time  |  max time  |%varavg| %total
---------------------------------------------------------------
Pair    | 174.4      | 204.07     | 235.49     | 109.1 | 50.88
Bond    | 5.8517     | 8.2159     | 10.859     |  33.4 |  2.05
Kspace  | 36.484     | 74.129     | 107.24     | 194.5 | 18.48
Neigh   | 0.032084   | 0.033983   | 0.035451   |   0.7 |  0.01
Comm    | 82.44      | 93.645     | 110.72     |  70.2 | 23.35
Output  | 0.11103    | 0.12203    | 0.13488    |   1.4 |  0.03
Modify  | 0.54643    | 0.66639    | 1.1023     |  16.2 |  0.17
Other   |            | 20.23      |            |       |  5.04

Nlocal:    112.5 ave 130 max 93 min
Histogram: 2 1 3 6 9 8 8 7 2 2
Nghost:    6646.96 ave 6733 max 6584 min
Histogram: 6 2 10 6 4 9 5 3 0 3
Neighs:    81611.6 ave 98873 max 64831 min
Histogram: 1 1 5 10 8 8 9 4 1 1

Total # of neighbors = 3917357
Ave neighs/atom = 725.436
Ave special neighs/atom = 10.4444
Neighbor list builds = 10
Dangerous builds = 0
# >>>>>>>>>  Equilibration run <<<<<<<<<<<<<<<<<<<<<<<<<<<<<<<<<<

fix             NVT_equib all nvt temp ${simulationTemp} ${simulationTemp} 100
fix             NVT_equib all nvt temp 360 ${simulationTemp} 100
fix             NVT_equib all nvt temp 360 360 100

print           "Step Density Temperature Pressure KinEng PotEng TotEng" file Properties_equib_360k.txt
Step Density Temperature Pressure KinEng PotEng TotEng
fix             PRINT_equib all print ${printfreq} "$(v_step) $(v_density) $(v_temp) $(v_press) $(v_pe) $(v_ke) $(v_etotal) $(v_enthalpy)" append Properties_equib_360k.txt title ""
fix             PRINT_equib all print 1000 "$(v_step) $(v_density) $(v_temp) $(v_press) $(v_pe) $(v_ke) $(v_etotal) $(v_enthalpy)" append Properties_equib_360k.txt title ""
# The 'print' and fix print' commands as used above will create a file named 'Properties_equib.txt' which allows you to quickly make plots to test for equilibration


run             ${NVT_equib}
run             100000
Ewald initialization ...
  using 12-bit tables for long-range coulomb (src/kspace.cpp:332)
  G vector (1/distance) = 0.142485
  estimated absolute RMS force accuracy = 0.0338118
  estimated relative force accuracy = 0.000101823
  KSpace vectors: actual max1d max3d = 128 4 364
                  kxmax kymax kzmax  = 4 4 4
Per MPI rank memory allocation (min/avg/max) = 22.51 | 22.56 | 22.89 Mbytes
Step Volume Temp Press KinEng PotEng TotEng Enthalpy E_vdwl E_coul E_pair E_bond E_angle E_dihed E_impro E_mol E_long E_tail Lx Ly Lz Xy Xz Yz Density 
  150518    52505.208    366.25454    54471.234    5894.2784    4943.3417     10837.62    52548.129   -1209.9957    4088.2693   -1611.0253    2735.7419    2919.7681    898.85694            0     6554.367    -4489.299   -51.832201      37.4456      37.4456      37.4456            0            0            0   0.82372725 
151000 0.82372724821372100834 348.1657807698430247 1180.7481155284499437 3612.497426365479896 5603.1688992197796324 9215.6663255852599832 10119.806010399699517
  151000    52505.208    348.16578    1180.7481    5603.1689    3612.4974    9215.6663    10119.806   -1815.1862    4110.6321   -2192.4894    2000.3869    2901.2103    903.38966            0    5804.9869   -4487.9354   -51.832201      37.4456      37.4456      37.4456            0            0            0   0.82372725 
152000 0.82372724821372100834 360.33129934708398423 2230.2267549043299368 3715.1263282802501635 5798.9533763276504033 9514.0797046079005668 11221.841494548600167
  152000    52505.208     360.3313    2230.2268    5798.9534    3715.1263    9514.0797    11221.841   -1800.8277     4104.982   -2184.2352    2061.1038     2891.359    946.89869            0    5899.3616   -4488.3895   -51.832201      37.4456      37.4456      37.4456            0            0            0   0.82372725 
153000 0.82372724821372100834 358.0383774095819831 1573.809977110950058 3551.6656369714601169 5762.052481414470094 9313.7181183859302109 10518.838870178200523
  153000    52505.208    358.03838      1573.81    5762.0525    3551.6656    9313.7181    10518.839   -1818.3473    4126.9348   -2179.3923     1930.787    2924.0866    876.18435            0    5731.0579   -4487.9798   -51.832201      37.4456      37.4456      37.4456            0            0            0   0.82372725 
154000 0.82372724821372100834 360.79982766229198887 1590.3865714100600144 3620.4565133536598296 5806.4935868514103277 9426.9501002050801617 10644.764123786499113
  154000    52505.208    360.79983    1590.3866    5806.4936    3620.4565    9426.9501    10644.764   -1772.3553    4071.5675   -2187.1697    1966.1348    2904.5136    936.97778            0    5807.6262   -4486.3819   -51.832201      37.4456      37.4456      37.4456            0            0            0   0.82372725 
155000 0.82372724821372100834 361.2213556367390197 1576.0866566860099738 3581.0231973901200035 5813.2774023985703025 9394.300599788690306 10601.164683902499746
  155000    52505.208    361.22136    1576.0867    5813.2774    3581.0232    9394.3006    10601.165   -1826.1663    4123.3712   -2190.8204    1982.6468       2882.6     906.5969            0    5771.8436   -4488.0254   -51.832201      37.4456      37.4456      37.4456            0            0            0   0.82372725 
156000 0.82372724821372100834 355.97454543115298975 1444.5393359337599577 3554.0348070394397837 5728.8384213503895808 9282.8732283898207243 10389.006977592300245
  156000    52505.208    355.97455    1444.5393    5728.8384    3554.0348    9282.8732    10389.007    -1784.643    4086.6014   -2187.1326    1980.6799    2842.6584    917.82912            0    5741.1674    -4489.091   -51.832201      37.4456      37.4456      37.4456            0            0            0   0.82372725 
157000 0.82372724821372100834 362.30457225079402406 1506.9349378469300973 3583.5507891659199231 5830.7100335709201318 9414.2608227368400549 10568.173043152299215
  157000    52505.208    362.30457    1506.9349      5830.71    3583.5508    9414.2608    10568.173   -1767.1008    4070.5285   -2185.4076    1966.5179    2870.5531    931.88743            0    5768.9584   -4488.8353   -51.832201      37.4456      37.4456      37.4456            0            0            0   0.82372725 
158000 0.82372724821372100834 359.20786454987899106 -273.98697753653800646 3657.6948141081202266 5780.8734981096204137 9438.5683122177397308 9228.7670038309097436
  158000    52505.208    359.20786   -273.98698    5780.8735    3657.6948    9438.5683     9228.767   -1803.7115    4097.0091   -2194.7521    2050.6224     2880.239    921.58543            0    5852.4469   -4488.0496   -51.832201      37.4456      37.4456      37.4456            0            0            0   0.82372725 
159000 0.82372724821372100834 362.38781809433498893 -60.419972704764198568 3613.5539618911698199 5832.0497416849202637 9445.603703576089174 9399.338040002839989
  159000    52505.208    362.38782   -60.419973    5832.0497     3613.554    9445.6037     9399.338   -1839.9177    4119.0109   -2209.5746    1990.0331    2919.8618    913.23369            0    5823.1286   -4488.6678   -51.832201      37.4456      37.4456      37.4456            0            0            0   0.82372725 
160000 0.82372724821372100834 358.87564817216298252 290.98914582828098219 3576.6880976562702017 5775.5270092292103072 9352.2151068854691403 9575.0355637920401932
  160000    52505.208    358.87565    290.98915     5775.527    3576.6881    9352.2151    9575.0356   -1831.1365    4095.1122   -2222.8123    1956.2379    2892.9892    950.27331            0    5799.5004   -4486.7881   -51.832201      37.4456      37.4456      37.4456            0            0            0   0.82372725 
161000 0.82372724821372100834 361.92222783750298731 2328.1739147873399816 3575.054178497940029 5824.5568144906101224 9399.6109929885496967 11182.374312129599275
  161000    52505.208    361.92223    2328.1739    5824.5568    3575.0542     9399.611    11182.374   -1791.9593    4082.7266   -2197.5791    1944.5025    2877.5672    950.56351            0    5772.6332   -4488.3464   -51.832201      37.4456      37.4456      37.4456            0            0            0   0.82372725 
162000 0.82372724821372100834 354.90793131788001347 1032.8031104855199374 3661.5995569596298083 5711.6729807555502703 9373.2725377151800785 10164.125613412699749
  162000    52505.208    354.90793    1032.8031     5711.673    3661.5996    9373.2725    10164.126   -1813.3929    4092.8218   -2210.1212    2023.3601    2917.6326    930.72809            0    5871.7207   -4489.5501   -51.832201      37.4456      37.4456      37.4456            0            0            0   0.82372725 
163000 0.82372724821372100834 361.93954866187198149 1368.3393239549400278 3673.3753986520100625 5824.8355653322296348 9498.2109639842401521 10545.995727567100403
  163000    52505.208    361.93955    1368.3393    5824.8356    3673.3754     9498.211    10545.996   -1840.0732     4122.389   -2204.1826    1934.8775    3032.1746    910.50598            0     5877.558   -4486.4984   -51.832201      37.4456      37.4456      37.4456            0            0            0   0.82372725 
164000 0.82372724821372100834 358.27537682092798832 -410.44183330515198804 3666.4429531990699616 5765.8666061910498684 9432.3095593901198299 9118.0200467338891031
  164000    52505.208    358.27538   -410.44183    5765.8666     3666.443    9432.3096      9118.02   -1871.3371     4114.379   -2245.2492    2039.7837    2922.0187    949.88977            0    5911.6922   -4488.2911   -51.832201      37.4456      37.4456      37.4456            0            0            0   0.82372725 
165000 0.82372724821372100834 365.30591663625199317 2575.4024585978499999 3521.6892931080101334 5879.0118496748900725 9400.7011427829093009 11372.77591179060073
  165000    52505.208    365.30592    2575.4025    5879.0118    3521.6893    9400.7011    11372.776   -1788.2911    4063.3782   -2211.9935    1970.1734    2819.4802    944.02922            0    5733.6828   -4487.0806   -51.832201      37.4456      37.4456      37.4456            0            0            0   0.82372725 
166000 0.82372724821372100834 363.66125946400302382 495.00282025021800791 3695.1784848953498113 5852.5437346951603104 9547.7222195905105764 9926.7630056797606812
  166000    52505.208    363.66126    495.00282    5852.5437    3695.1785    9547.7222     9926.763    -1813.281    4154.0164   -2147.6251    2018.0492    2917.6359    907.11853            0    5842.8036   -4488.3605   -51.832201      37.4456      37.4456      37.4456            0            0            0   0.82372725 
167000 0.82372724821372100834 360.0053398630969923 2243.033501758679904 3592.1143099751297996 5793.7075820998297786 9385.8218920749695826 11103.390251183200235
  167000    52505.208    360.00534    2243.0335    5793.7076    3592.1143    9385.8219     11103.39   -1826.3908     4101.936   -2212.6485    1962.7025    2918.5987    923.46157            0    5804.7628   -4488.1937   -51.832201      37.4456      37.4456      37.4456            0            0            0   0.82372725 
168000 0.82372724821372100834 358.77119899180001994 -1185.2511149610199936 3632.9493698881101409 5773.8460674730604296 9406.7954373611792107 8499.2076500817092892
  168000    52505.208     358.7712   -1185.2511    5773.8461    3632.9494    9406.7954    8499.2077    -1845.978    4096.8873   -2238.2533    2003.4628    2950.6018    917.13809            0    5871.2027   -4489.1627   -51.832201      37.4456      37.4456      37.4456            0            0            0   0.82372725 
169000 0.82372724821372100834 361.24835706097900356 701.59455321563098096 3722.8015146456000366 5813.7119469428398588 9536.5134615884398954 10073.748685485499664
  169000    52505.208    361.24836    701.59455    5813.7119    3722.8015    9536.5135    10073.749   -1824.3072     4104.956   -2207.7021    1988.1352    3023.2755    919.09299            0    5930.5036    -4488.351   -51.832201      37.4456      37.4456      37.4456            0            0            0   0.82372725 
170000 0.82372724821372100834 359.79801105730797417 -421.78124160786802577 3557.954516150370182 5790.370958052700189 9348.3254742030603666 9025.3529842767693481
  170000    52505.208    359.79801   -421.78124     5790.371    3557.9545    9348.3255     9025.353   -1864.5026    4122.3514   -2231.9756    2025.1059    2860.5334    904.29081            0    5789.9301   -4489.8244   -51.832201      37.4456      37.4456      37.4456            0            0            0   0.82372725 
171000 0.82372724821372100834 354.38892357560598612 717.40903940403404704 3559.1416622801898484 5703.3203849503797755 9262.4620472305705334 9811.8069703681394458
  171000    52505.208    354.38892    717.40904    5703.3204    3559.1417     9262.462     9811.807   -1814.5861    4098.1158   -2206.0802    1983.8362     2871.663    909.72259            0    5765.2218   -4489.6098   -51.832201      37.4456      37.4456      37.4456            0            0            0   0.82372725 
172000 0.82372724821372100834 355.74363894246397422 2632.2725656265902217 3560.2851892105900333 5725.1223523754697453 9285.4075415860606881 11301.02971919690026
  172000    52505.208    355.74364    2632.2726    5725.1224    3560.2852    9285.4075     11301.03    -1756.739    4030.6694   -2215.3094    1958.9094    2920.8235    895.86174            0    5775.5946   -4489.2397   -51.832201      37.4456      37.4456      37.4456            0            0            0   0.82372725 
173000 0.82372724821372100834 364.00289314261601703 570.21886538596800165 3535.6009623326799556 5858.0417799042597835 9393.6427422369397391 9830.279056489789582
  173000    52505.208    364.00289    570.21887    5858.0418     3535.601    9393.6427    9830.2791   -1871.5057    4125.0974   -2235.0267    1991.0471    2895.1049    884.47568            0    5770.6276   -4488.6183   -51.832201      37.4456      37.4456      37.4456            0            0            0   0.82372725 
174000 0.82372724821372100834 360.39298385439900585 617.58853630946600788 3556.280780455510012 5799.9460893742498229 9356.2268698297593801 9829.1357800539899472
  174000    52505.208    360.39298    617.58854    5799.9461    3556.2808    9356.2269    9829.1358   -1844.7667    4123.7526   -2210.3404     1970.918    2936.0886    859.61457            0    5766.6212   -4489.3262   -51.832201      37.4456      37.4456      37.4456            0            0            0   0.82372725 
175000 0.82372724821372100834 356.72387673567197908 558.0860550807559548 3558.8039195672599817 5740.897704865869855 9299.7016244331298367 9727.0474260516493814
  175000    52505.208    356.72388    558.08606    5740.8977    3558.8039    9299.7016    9727.0474   -1858.1281    4141.0521   -2204.9866    1960.4972    2903.2753    900.01809            0    5763.7905   -4487.9106   -51.832201      37.4456      37.4456      37.4456            0            0            0   0.82372725 
176000 0.82372724821372100834 360.39279395002199635 1392.3249126229900412 3689.8058464922701205 5799.9430331683797704 9489.7488796606503456 10555.900238365000405
  176000    52505.208    360.39279    1392.3249     5799.943    3689.8058    9489.7489      10555.9   -1834.7064    4121.8938   -2199.3676    1974.6888       3001.2    913.28465            0    5889.1735    -4486.555   -51.832201      37.4456      37.4456      37.4456            0            0            0   0.82372725 
177000 0.82372724821372100834 351.46928454295499478 944.11710702748905533 3547.8964977210298457 5656.3334852368998327 9204.2299829579205834 9927.1731173568696249
  177000    52505.208    351.46928    944.11711    5656.3335    3547.8965      9204.23    9927.1731   -1830.2845    4132.9634   -2184.8441    1937.9336    2886.3134    908.49351            0    5732.7406    -4487.523   -51.832201      37.4456      37.4456      37.4456            0            0            0   0.82372725 
178000 0.82372724821372100834 359.78037015093997297 1318.7168916537500536 3675.6937615518099847 5790.0870560055300302 9465.7808175573391054 10475.567967838500408
  178000    52505.208    359.78037    1318.7169    5790.0871    3675.6938    9465.7808    10475.568   -1836.0272    4174.8286   -2149.5141    1934.7869     2990.845    899.57594            0    5825.2079   -4488.3155   -51.832201      37.4456      37.4456      37.4456            0            0            0   0.82372725 
179000 0.82372724821372100834 356.82648927115297965 401.85529658862498081 3563.2901936913399368 5742.5490887732903502 9305.8392824646307417 9613.5537868710707698
  179000    52505.208    356.82649     401.8553    5742.5491    3563.2902    9305.8393    9613.5538   -1885.4997    4195.8867    -2177.915    1961.0926    2882.8137    897.29885            0    5741.2052   -4488.3019   -51.832201      37.4456      37.4456      37.4456            0            0            0   0.82372725 
180000 0.82372724821372100834 352.99310364629297965 1489.0351461628799825 3655.1571028742700946 5680.8569056287096828 9336.0140085029797774 10476.219739110299997
  180000    52505.208     352.9931    1489.0351    5680.8569    3655.1571     9336.014     10476.22    -1832.043    4165.3728   -2156.2274    2005.6794    2924.2846    881.42055            0    5811.3845   -4489.5572   -51.832201      37.4456      37.4456      37.4456            0            0            0   0.82372725 
181000 0.82372724821372100834 361.16901260957899922 697.69746726640403267 3637.1318042349398638 5812.4350254676000986 9449.5668297025404172 9983.8179200528102228
  181000    52505.208    361.16901    697.69747     5812.435    3637.1318    9449.5668    9983.8179    -1849.675    4221.2928   -2118.2824    1971.6676    2862.2272    921.51935            0    5755.4142   -4489.9002   -51.832201      37.4456      37.4456      37.4456            0            0            0   0.82372725 
182000 0.82372724821372100834 360.49385515535999502 577.43850085108601888 3651.3440340683000613 5801.5694509094400928 9452.9134849777401541 9895.0781238987001416
  182000    52505.208    360.49386     577.4385    5801.5695     3651.344    9452.9135    9895.0781   -1854.4343    4191.1392   -2153.7362    1999.1791    2889.2722     916.6289            0    5805.0802   -4490.4411   -51.832201      37.4456      37.4456      37.4456            0            0            0   0.82372725 
183000 0.82372724821372100834 362.79180355127499524 1397.8753879530900122 3597.4582698170697768 5838.5512385955598802 9436.009508412629657 10506.411058118399524
  183000    52505.208     362.7918    1397.8754    5838.5512    3597.4583    9436.0095    10506.411   -1859.0435    4198.8578   -2149.1349    1955.6896    2913.2738    877.62968            0    5746.5931   -4488.9492   -51.832201      37.4456      37.4456      37.4456            0            0            0   0.82372725 
184000 0.82372724821372100834 369.919312298954992 928.5046775520789879 3632.0114016250699933 5953.257041261210361 9585.2684428862794448 10296.256599860800634
  184000    52505.208    369.91931    928.50468     5953.257    3632.0114    9585.2684    10296.257   -1839.2041    4170.5466   -2157.2342    1965.6191    2928.7838    894.84267            0    5789.2456   -4488.5766   -51.832201      37.4456      37.4456      37.4456            0            0            0   0.82372725 
185000 0.82372724821372100834 359.10130157241502502 2004.5106311614099468 3554.0697284759999093 5779.1585381850300109 9333.2282666610299202 10868.151411090000693
  185000    52505.208     359.1013    2004.5106    5779.1585    3554.0697    9333.2283    10868.151   -1814.1325    4098.5587   -2202.0929    1933.3371    2922.7586    900.06691            0    5756.1626   -4486.5191   -51.832201      37.4456      37.4456      37.4456            0            0            0   0.82372725 
186000 0.82372724821372100834 356.5105189400920267 1589.9116308753900739 3757.1668287735401464 5737.4640539138499662 9494.6308826873901126 10712.081227868900896
  186000    52505.208    356.51052    1589.9116    5737.4641    3757.1668    9494.6309    10712.081   -1834.2197    4131.2055   -2189.6507    1994.9434    3058.5316    893.34256            0    5946.8176   -4486.6366   -51.832201      37.4456      37.4456      37.4456            0            0            0   0.82372725 
187000 0.82372724821372100834 357.0358785336039773 1728.8647163323100813 3571.7770714377597869 5745.9188725601998158 9317.6959439979600575 10641.54747435759964
[...]
253000 0.82372724821372100834 354.62733105308001313 406.78529174575197658 3571.8846248855002159 5707.1571702891596942 9279.0417951746603649 9590.5313674460194306
  253000    52505.208    354.62733    406.78529    5707.1572    3571.8846    9279.0418    9590.5314   -1877.0083    4109.8084   -2254.9591    1947.2197    3000.3452     879.2788            0    5826.8437   -4487.7592   -51.832201      37.4456      37.4456      37.4456            0            0            0   0.82372725 
254000 0.82372724821372100834 361.73906697593997706 2040.9250483596899812 3594.9528376168200339 5821.6091346790099124 9416.5619722958308557 10979.368895877500108
254000 0.82372724821372100834 361.73906697593997706 2040.9250483596899812 3594.9528376168200339 5821.6091346790099124 9416.5619722958308557 10979.368895877500108
  254000    52505.208    361.73907     2040.925    5821.6091    3594.9528     9416.562    10979.369   -1828.7172    4105.8638    -2211.357    1984.9904    2957.7103    863.60914            0    5806.3099   -4488.5036   -51.832201      37.4456      37.4456      37.4456            0            0            0   0.82372725 
255000 0.82372724821372100834 355.5037978930579925 894.15592417636105438 3586.1959025495898459 5721.2624959995200697 9307.4583985491099156 9992.1445266298505885
255000 0.82372724821372100834 355.5037978930579925 894.15592417636105438 3586.1959025495898459 5721.2624959995200697 9307.4583985491099156 9992.1445266298505885
  255000    52505.208     355.5038    894.15592    5721.2625    3586.1959    9307.4584    9992.1445   -1797.9498    4082.8815   -2204.9126    1977.2767    2941.5555    872.27628            0    5791.1085   -4489.8443   -51.832201      37.4456      37.4456      37.4456            0            0            0   0.82372725 
256000 0.82372724821372100834 359.09900277632999632 1602.6821683023899823 3535.1316505277500255 5779.1215427551596804 9314.2531932829006109 10541.482380820600156
256000 0.82372724821372100834 359.09900277632999632 1602.6821683023899823 3535.1316505277500255 5779.1215427551596804 9314.2531932829006109 10541.482380820600156
  256000    52505.208      359.099    1602.6822    5779.1215    3535.1317    9314.2532    10541.482   -1819.8876    4047.2852   -2262.6778    2008.7241    2931.1355    857.94996            0    5797.8095   -4490.0754   -51.832201      37.4456      37.4456      37.4456            0            0            0   0.82372725 
257000 0.82372724821372100834 361.61857706270200197 681.33716839228497975 3439.8468603293599699 5819.6700430973096445 9259.5169034266691597 9781.240346878350465
257000 0.82372724821372100834 361.61857706270200197 681.33716839228497975 3439.8468603293599699 5819.6700430973096445 9259.5169034266691597 9781.240346878350465
  257000    52505.208    361.61858    681.33717      5819.67    3439.8469    9259.5169    9781.2403   -1864.5292    4075.2785   -2278.2627    1911.1758     2944.216    862.71772            0    5718.1095   -4489.0119   -51.832201      37.4456      37.4456      37.4456            0            0            0   0.82372725 
258000 0.82372724821372100834 356.63272767681797859 1498.4212889567800175 3553.5021545440199588 5739.4308071982295587 9292.9329617422608862 10440.325986638499671
258000 0.82372724821372100834 356.63272767681797859 1498.4212889567800175 3553.5021545440199588 5739.4308071982295587 9292.9329617422608862 10440.325986638499671
  258000    52505.208    356.63273    1498.4213    5739.4308    3553.5022     9292.933    10440.326   -1820.8182    4068.6692   -2241.9585    1966.3105    2955.0041    874.14603            0    5795.4606   -4489.8095   -51.832201      37.4456      37.4456      37.4456            0            0            0   0.82372725 
259000 0.82372724821372100834 353.32734247123397608 -509.07523530048700877 3534.8772737075400983 5686.2359425480699429 9221.1132162556095864 8831.2966950702793838
259000 0.82372724821372100834 353.32734247123397608 -509.07523530048700877 3534.8772737075400983 5686.2359425480699429 9221.1132162556095864 8831.2966950702793838
  259000    52505.208    353.32734   -509.07524    5686.2359    3534.8773    9221.1132    8831.2967    -1843.493    4069.7365   -2263.1822    1977.8847    2930.0198    890.15491            0    5798.0594   -4489.4257   -51.832201      37.4456      37.4456      37.4456            0            0            0   0.82372725 
260000 0.82372724821372100834 357.75199468957902127 1551.4129029002199331 3556.9157864224298464 5757.4436116213400965 9314.3593980437708524 10502.329935195599319
260000 0.82372724821372100834 357.75199468957902127 1551.4129029002199331 3556.9157864224298464 5757.4436116213400965 9314.3593980437708524 10502.329935195599319
  260000    52505.208    357.75199    1551.4129    5757.4436    3556.9158    9314.3594     10502.33   -1844.3128    4068.2553   -2266.7729    1950.7079    2994.7119     878.2689            0    5823.6886   -4490.7154   -51.832201      37.4456      37.4456      37.4456            0            0            0   0.82372725 
261000 0.82372724821372100834 357.5685168761349928 1823.1162386964299458 3476.4705278818200895 5754.4908309784095763 9230.9613588602296659 10626.984540906500115
261000 0.82372724821372100834 357.5685168761349928 1823.1162386964299458 3476.4705278818200895 5754.4908309784095763 9230.9613588602296659 10626.984540906500115
  261000    52505.208    357.56852    1823.1162    5754.4908    3476.4705    9230.9614    10626.985   -1807.9806    4079.9906   -2217.2876         1954    2880.6078    859.15031            0    5693.7581   -4489.2976   -51.832201      37.4456      37.4456      37.4456            0            0            0   0.82372725 
262000 0.82372724821372100834 363.27824241114200277 2514.2274368436101213 3456.945041834049789 5846.3796905616000004 9303.3247323956493346 11228.555670649000604
262000 0.82372724821372100834 363.27824241114200277 2514.2274368436101213 3456.945041834049789 5846.3796905616000004 9303.3247323956493346 11228.555670649000604
  262000    52505.208    363.27824    2514.2274    5846.3797     3456.945    9303.3247    11228.556    -1845.167    4084.5806   -2250.9424    1974.2936    2874.0471    859.54677            0    5707.8874   -4490.3559   -51.832201      37.4456      37.4456      37.4456            0            0            0   0.82372725 
263000 0.82372724821372100834 366.37719758460599451 1574.3752787161699871 3542.6235664984201321 5896.2523954829102877 9438.8759619813299651 10644.429584771600275
263000 0.82372724821372100834 366.37719758460599451 1574.3752787161699871 3542.6235664984201321 5896.2523954829102877 9438.8759619813299651 10644.429584771600275
  263000    52505.208     366.3772    1574.3753    5896.2524    3542.6236     9438.876     10644.43    -1857.987    4109.0421   -2240.2409    1976.8589    2928.2182    877.78731            0    5782.8644   -4491.2961   -51.832201      37.4456      37.4456      37.4456            0            0            0   0.82372725 
264000 0.82372724821372100834 355.99688817712501532 930.16138610452094326 3455.4890193762198578 5729.1979919523000717 9184.6870113285203843 9896.9437673621596332
264000 0.82372724821372100834 355.99688817712501532 930.16138610452094326 3455.4890193762198578 5729.1979919523000717 9184.6870113285203843 9896.9437673621596332
  264000    52505.208    355.99689    930.16139     5729.198     3455.489     9184.687    9896.9438   -1839.1271    4105.2388    -2223.437    1909.2039    2888.9453    880.77674            0     5678.926   -4489.5487   -51.832201      37.4456      37.4456      37.4456            0            0            0   0.82372725 
265000 0.82372724821372100834 359.88114063271700616 1674.5572855146199345 3528.2609872626799188 5791.708795017920238 9319.9697822805901524 10602.236233878000348
265000 0.82372724821372100834 359.88114063271700616 1674.5572855146199345 3528.2609872626799188 5791.708795017920238 9319.9697822805901524 10602.236233878000348
  265000    52505.208    359.88114    1674.5573    5791.7088     3528.261    9319.9698    10602.236   -1844.5394    4080.6821   -2253.6513    1941.4186    2973.0538    867.43987            0    5781.9123    -4489.794   -51.832201      37.4456      37.4456      37.4456            0            0            0   0.82372725 
266000 0.82372724821372100834 353.0435225595199995 2023.2166056708599626 3449.8772409708599298 5681.6683170370897642 9131.5455580079506035 10680.792514327600657
266000 0.82372724821372100834 353.0435225595199995 2023.2166056708599626 3449.8772409708599298 5681.6683170370897642 9131.5455580079506035 10680.792514327600657
  266000    52505.208    353.04352    2023.2166    5681.6683    3449.8772    9131.5456    10680.793   -1812.9905     4049.739   -2253.6413    1966.8054    2900.0035    836.70963            0    5703.5186   -4490.3898   -51.832201      37.4456      37.4456      37.4456            0            0            0   0.82372725 
267000 0.82372724821372100834 361.08901005398797679 -275.93282082233298524 3574.2619162944602067 5811.1475128626798323 9385.409429157140039 9174.1181212420506199
267000 0.82372724821372100834 361.08901005398797679 -275.93282082233298524 3574.2619162944602067 5811.1475128626798323 9385.409429157140039 9174.1181212420506199
  267000    52505.208    361.08901   -275.93282    5811.1475    3574.2619    9385.4094    9174.1181   -1803.8309    4025.0118   -2269.3799    2039.4664    2935.6933    868.48211            0    5843.6418   -4490.5608   -51.832201      37.4456      37.4456      37.4456            0            0            0   0.82372725 
268000 0.82372724821372100834 362.51235464840198119 725.89459218304102706 3572.1848007062599208 5834.0539574496797286 9406.2387581559396494 9962.0813626483995904
268000 0.82372724821372100834 362.51235464840198119 725.89459218304102706 3572.1848007062599208 5834.0539574496797286 9406.2387581559396494 9962.0813626483995904
  268000    52505.208    362.51235    725.89459     5834.054    3572.1848    9406.2388    9962.0814   -1814.3644    4081.0126   -2223.9276    2039.2286    2914.0394    842.84442            0    5796.1124   -4490.5758   -51.832201      37.4456      37.4456      37.4456            0            0            0   0.82372725 
269000 0.82372724821372100834 360.70575548713799208 1276.0704055364699343 3451.0988450860400008 5804.9796463230295558 9256.0784914090600068 10233.20975174259911
269000 0.82372724821372100834 360.70575548713799208 1276.0704055364699343 3451.0988450860400008 5804.9796463230295558 9256.0784914090600068 10233.20975174259911
  269000    52505.208    360.70576    1276.0704    5804.9796    3451.0988    9256.0785     10233.21   -1849.3228    4084.1848   -2253.6842    1985.5651     2904.302    814.91595            0    5704.7831   -4488.5462   -51.832201      37.4456      37.4456      37.4456            0            0            0   0.82372725 
270000 0.82372724821372100834 359.07481312414802233 328.78892186336099712 3509.2666584479998164 5778.7322491649401854 9287.9989076129295427 9539.763960865620902
270000 0.82372724821372100834 359.07481312414802233 328.78892186336099712 3509.2666584479998164 5778.7322491649401854 9287.9989076129295427 9539.763960865620902
  270000    52505.208    359.07481    328.78892    5778.7322    3509.2667    9287.9989     9539.764   -1818.5526    4015.4057   -2291.9406    2075.5195    2897.3997     828.2881            0    5801.2073   -4488.7937   -51.832201      37.4456      37.4456      37.4456            0            0            0   0.82372725 
271000 0.82372724821372100834 359.8956465462720189 768.027359521624021 3473.4632254702100909 5791.9422443922603634 9265.4054698624604498 9853.5105920594905911
271000 0.82372724821372100834 359.8956465462720189 768.027359521624021 3473.4632254702100909 5791.9422443922603634 9265.4054698624604498 9853.5105920594905911
  271000    52505.208    359.89565    768.02736    5791.9422    3473.4632    9265.4055    9853.5106   -1831.2107    4043.6139    -2276.017    1952.9092    2927.0186    869.55247            0    5749.4803   -4488.4203   -51.832201      37.4456      37.4456      37.4456            0            0            0   0.82372725 
272000 0.82372724821372100834 357.71815137775899984 1069.7833714717498879 3549.9533321344001706 5756.898957888230143 9306.8522900226307684 10126.022431039000367
272000 0.82372724821372100834 357.71815137775899984 1069.7833714717498879 3549.9533321344001706 5756.898957888230143 9306.8522900226307684 10126.022431039000367
  272000    52505.208    357.71815    1069.7834     5756.899    3549.9533    9306.8523    10126.022   -1795.2279    4028.7679   -2255.8994    2004.4266    2926.3747    875.05139            0    5805.8527   -4489.4395   -51.832201      37.4456      37.4456      37.4456            0            0            0   0.82372725 
273000 0.82372724821372100834 354.55772740472497162 1454.9184780646598938 3440.0770035066898345 5706.0370113899298303 9146.1140148966205743 10260.195432337099191
273000 0.82372724821372100834 354.55772740472497162 1454.9184780646598938 3440.0770035066898345 5706.0370113899298303 9146.1140148966205743 10260.195432337099191
  273000    52505.208    354.55773    1454.9185     5706.037     3440.077     9146.114    10260.195   -1830.0673    4078.4644   -2240.6729     1934.078    2889.8812    856.79071            0    5680.7499     -4489.07   -51.832201      37.4456      37.4456      37.4456            0            0            0   0.82372725 
274000 0.82372724821372100834 357.6551409894959761 988.30527282340494821 3579.7060183966200384 5755.8849069178595528 9335.5909253144800459 10092.37046713160089
274000 0.82372724821372100834 357.6551409894959761 988.30527282340494821 3579.7060183966200384 5755.8849069178595528 9335.5909253144800459 10092.37046713160089
  274000    52505.208    357.65514    988.30527    5755.8849     3579.706    9335.5909     10092.37   -1873.7341    4049.0001   -2312.6032    2067.8468    2941.0647    883.39778            0    5892.3093   -4487.8693   -51.832201      37.4456      37.4456      37.4456            0            0            0   0.82372725 
275000 0.82372724821372100834 363.81367045990202769 749.80874468868603344 3445.5393184155500421 5854.996544819779956 9300.5358632353400026 9874.6903617081497941
275000 0.82372724821372100834 363.81367045990202769 749.80874468868603344 3445.5393184155500421 5854.996544819779956 9300.5358632353400026 9874.6903617081497941
  275000    52505.208    363.81367    749.80874    5854.9965    3445.5393    9300.5359    9874.6904   -1853.9906    4032.0236   -2310.7253    1981.9106     2913.621    860.73296            0    5756.2646   -4488.7582   -51.832201      37.4456      37.4456      37.4456            0            0            0   0.82372725 
276000 0.82372724821372100834 357.09077656348699747 1683.3064072186200519 3613.912909232290076 5746.8023681552804192 9360.7152773875804996 10649.681234184899949
276000 0.82372724821372100834 357.09077656348699747 1683.3064072186200519 3613.912909232290076 5746.8023681552804192 9360.7152773875804996 10649.681234184899949
  276000    52505.208    357.09078    1683.3064    5746.8024    3613.9129    9360.7153    10649.681   -1809.8616    4031.5562   -2267.2078    1987.9847    3011.1973    881.93878            0    5881.1207   -4488.9024   -51.832201      37.4456      37.4456      37.4456            0            0            0   0.82372725 
277000 0.82372724821372100834 352.99412433466301309 692.8648213731900114 3418.496049636889893 5680.8733319682396541 9099.3693816051199974 9629.919947790029255
277000 0.82372724821372100834 352.99412433466301309 692.8648213731900114 3418.496049636889893 5680.8733319682396541 9099.3693816051199974 9629.919947790029255
  277000    52505.208    352.99412    692.86482    5680.8733     3418.496    9099.3694    9629.9199   -1848.8803    4006.5033    -2330.999    1998.0759    2893.3597    858.05951            0    5749.4951    -4488.622   -51.832201      37.4456      37.4456      37.4456            0            0            0   0.82372725 
278000 0.82372724821372100834 359.88647385153200275 1263.1848633621700628 3513.6836941327001114 5791.7946246067003813 9305.4783187394004926 10272.742673602699142
278000 0.82372724821372100834 359.88647385153200275 1263.1848633621700628 3513.6836941327001114 5791.7946246067003813 9305.4783187394004926 10272.742673602699142
  278000    52505.208    359.88647    1263.1849    5791.7946    3513.6837    9305.4783    10272.743   -1829.6925    4054.6248   -2262.9322     1961.229    2933.5915    881.79538            0    5776.6159   -4487.8646   -51.832201      37.4456      37.4456      37.4456            0            0            0   0.82372725 
279000 0.82372724821372100834 360.86907189297602372 479.76434900061900635 3368.2127825081402079 5807.6079615006401582 9175.8207440087808209 9543.1929054256906966
279000 0.82372724821372100834 360.86907189297602372 479.76434900061900635 3368.2127825081402079 5807.6079615006401582 9175.8207440087808209 9543.1929054256906966
  279000    52505.208    360.86907    479.76435     5807.608    3368.2128    9175.8207    9543.1929   -1817.4635    3987.0951   -2318.8779    1966.7806     2877.054    843.25607            0    5687.0906   -4488.5094   -51.832201      37.4456      37.4456      37.4456            0            0            0   0.82372725 
280000 0.82372724821372100834 355.38267221086897507 -481.02862847652698974 3542.9067690944798414 5719.3131727379495715 9262.2199418324307771 8893.8796778779505985
280000 0.82372724821372100834 355.38267221086897507 -481.02862847652698974 3542.9067690944798414 5719.3131727379495715 9262.2199418324307771 8893.8796778779505985
  280000    52505.208    355.38267   -481.02863    5719.3132    3542.9068    9262.2199    8893.8797    -1823.212    4046.6284   -2262.6797    2020.4794    2908.1681    876.93895            0    5805.5865   -4486.0961   -51.832201      37.4456      37.4456      37.4456            0            0            0   0.82372725 
  280518    52505.208    361.77564    1997.0346    5822.1978    3460.2914    9282.4891    10811.688   -1800.1457    3984.8677    -2302.608    1936.1993    2957.5143    869.18576            0    5762.8993   -4487.3299   -51.832201      37.4456      37.4456      37.4456            0            0            0   0.82372725 
Loop time of 140.224 on 48 procs for 30000 steps with 5400 atoms

Performance: 18.485 ns/day, 1.298 hours/ns, 213.944 timesteps/s
68.4% CPU use with 48 MPI tasks x 1 OpenMP threads

MPI task timing breakdown:
Section |  min time  |  avg time  |  max time  |%varavg| %total
---------------------------------------------------------------
Pair    | 55.018     | 59.18      | 63.504     |  28.2 | 42.20
Bond    | 2.1689     | 2.4777     | 2.8472     |   9.9 |  1.77
Kspace  | 16.529     | 21.402     | 25.75      |  46.9 | 15.26
Neigh   | 13.701     | 14.37      | 14.884     |  10.8 | 10.25
Comm    | 29.144     | 32.911     | 38.204     |  34.3 | 23.47
Output  | 0.17814    | 0.1783     | 0.17844    |   0.0 |  0.13
Modify  | 2.4159     | 5.7522     | 7.7252     |  54.4 |  4.10
Other   |            | 3.952      |            |       |  2.82

Nlocal:    112.5 ave 128 max 97 min
Histogram: 3 1 6 5 9 7 7 5 4 1
Nghost:    6649.44 ave 6690 max 6604 min
Histogram: 2 3 3 10 3 6 9 5 2 5
Neighs:    81740.8 ave 93643 max 69939 min
Histogram: 3 2 5 6 7 10 7 4 2 2

Total # of neighbors = 3923557
Ave neighs/atom = 726.585
Ave special neighs/atom = 10.4444
Neighbor list builds = 3704
Dangerous builds = 0

write_data      restart.${NAME}.final.data
write_data      restart.octanol_360k.final.data
Ewald initialization ...
  using 12-bit tables for long-range coulomb (src/kspace.cpp:332)
  G vector (1/distance) = 0.142485
  estimated absolute RMS force accuracy = 0.0338118
  estimated relative force accuracy = 0.000101823
  KSpace vectors: actual max1d max3d = 128 4 364
                  kxmax kymax kzmax  = 4 4 4
Total wall time: 0:21:03
