
variable        infile index octanol.data   # The name of the (edited) data file

#>>>>>> Simulation settings <<<<<<<

units		 real		#angstroms = length -
atom_style	 full		#How the atoms are defined in the input data file
boundary        p p p           #periodic box in x, y and z
pair_style	 lj/cut/coul/long 14.0    #'lj/cut/coul/long 12.0' for your ethanol simulation
pair_modify     tail yes            #Tail corrections
pair_modify     mix arithmetic      #Lorentz-Berthelot pair interactions between dissimilar atom

# The settings below are additional settings you must add for your ethanol simulation as already detailed in your example NPT LAMMPS script in the tutorial
# For your ethanol homework, change/edit the pair_style line as advised above and uncomment the extra settings below and you should be good to go for this section.

special_bonds   lj/coul 0.0 0.0 0.5
kspace_style    ewald 0.0001
bond_style      harmonic
angle_style     harmonic
dihedral_style  opls


# >>> Using the variable command in LAMMPS to define inputs/settings for the simulation <<<<<<

variable   simulationTemp  index 310     #Simulation temperature
variable   simulationPress equal 0.987	#Simulation pressure

# Output files frequencies
variable        dumpfreq   index 1000          #Output frequency of dump information to dump
variable        thermofreq index 1000          #Output frequency of property information to log
variable        printfreq  index 1000          #Output frequency of information to be printed
variable        restartfreq index 1000000      #Output frequency of restart files


# Simulation run times (equilibration and production)
variable        NVT_equib  index 100000       # Equilibration run length (in timesteps)
variable        NVT_prod   index 30000       # Simulation run length  (in timesteps)


# Defining properties to output
# The first expression after the 'variable' command is a user defined name for the variable, it can be anything
# The expression after the 'equal' keyword are LAMMPS special/reserved terms for those property

variable    step        equal step
variable    density     equal density
variable    temp        equal temp
variable    press       equal press
variable    ke          equal ke
variable    pe          equal pe
variable    etotal      equal etotal
variable    enthalpy    equal enthalpy


# >>>>>>>>>>> Reading data, Neighbor list settings, energy minimization, assigning initial velocities & specifying thermodynamic property output style to log files <<<<<<<<<

read_data	${infile}
read_data	octanol.data
  orthogonal box = (0 0 0) to (40 40 40)
  3 by 4 by 4 MPI processor grid
  reading atoms ...
  5400 atoms
  scanning bonds ...
  1 = max bonds/atom
  scanning angles ...
  6 = max angles/atom
  scanning dihedrals ...
  10 = max dihedrals/atom
  reading bonds ...
  5200 bonds
  reading angles ...
  9800 angles
  reading dihedrals ...
  13200 dihedrals
  4 = max # of 1-2 neighbors
  6 = max # of 1-3 neighbors
  12 = max # of 1-4 neighbors
  16 = max # of special neighbors
  special bonds CPU = 0.018349 secs
  read_data CPU = 0.0847247 secs
neighbor        1.0 bin
neigh_modify    delay 0 every 1 check yes page 1000000 one 20000
timestep        1.0

minimize        1e-4 1e-6 10000 100000        #Energy minimize before creating velocities
Ewald initialization ...
  using 12-bit tables for long-range coulomb (src/kspace.cpp:332)
  G vector (1/distance) = 0.140701
  estimated absolute RMS force accuracy = 0.0347754
  estimated relative force accuracy = 0.000104725
  KSpace vectors: actual max1d max3d = 128 4 364
                  kxmax kymax kzmax  = 4 4 4
Neighbor list info ...
  update every 1 steps, delay 0 steps, check yes
  max neighbors/atom: 20000, page size: 1000000
  master list distance cutoff = 15
  ghost atom cutoff = 15
  binsize = 7.5, bins = 6 6 6
  1 neighbor lists, perpetual/occasional/extra = 1 0 0
  (1) pair lj/cut/coul/long, perpetual
      attributes: half, newton on
      pair build: half/bin/newton
      stencil: half/bin/3d/newton
      bin: standard
Per MPI rank memory allocation (min/avg/max) = 23.62 | 23.67 | 23.84 Mbytes
Step Temp E_pair E_mol TotEng Press 
       0            0     3405.817    1701.0249    5106.8419    4097.4389 
     518            0   -2313.0078    889.32797   -1423.6798   -1232.5021 
Loop time of 6.40473 on 48 procs for 518 steps with 5400 atoms

59.0% CPU use with 48 MPI tasks x 1 OpenMP threads

Minimization stats:
  Stopping criterion = energy tolerance
  Energy initial, next-to-last, final = 
         5106.84193569     -1423.57203144     -1423.67981613
  Force two-norm initial, final = 3350.81 23.069
  Force max component initial, final = 845.808 2.76546
  Final line search alpha, max atom move = 0.0129189 0.0357266
  Iterations, force evaluations = 518 1030

MPI task timing breakdown:
Section |  min time  |  avg time  |  max time  |%varavg| %total
---------------------------------------------------------------
Pair    | 1.1026     | 2.4477     | 3.8597     |  43.7 | 38.22
Bond    | 0.055379   | 0.089089   | 0.12486    |   5.4 |  1.39
Kspace  | 0.4446     | 1.8787     | 3.2441     |  50.6 | 29.33
Neigh   | 0.13095    | 0.13462    | 0.13831    |   0.6 |  2.10
Comm    | 0.96765    | 1.0982     | 1.2905     |   5.8 | 17.15
Output  | 0          | 0          | 0          |   0.0 |  0.00
Modify  | 0          | 0          | 0          |   0.0 |  0.00
Other   |            | 0.7563     |            |       | 11.81

Nlocal:    112.5 ave 146 max 70 min
Histogram: 4 4 2 3 3 11 4 6 6 5
Nghost:    5652.17 ave 5831 max 5357 min
Histogram: 15 1 0 0 0 0 0 0 11 21
Neighs:    69014.7 ave 109982 max 28120 min
Histogram: 2 3 6 7 7 4 8 5 3 3

Total # of neighbors = 3312706
Ave neighs/atom = 613.464
Ave special neighs/atom = 10.4444
Neighbor list builds = 39
Dangerous builds = 0
#velocity	all create ${simulationTemp} 886874 mom yes rot yes dist gaussian

velocity        all create  ${simulationTemp} 317879265 units box
velocity        all create  310 317879265 units box
velocity        all zero linear units box

# The 'velocity' command line above assigns initial velocities to the atoms in our data file, see the LAMMPS 'velocity' command
# The number '886874' is the seed number which helps LAMMPS to consistently assign the same randomized velocities for the same simulation with the same seed number
# Changing that seed number for your simulation of a given system is one easy way to run an 'independent' simulation of the same system as taught in class
# You will need to do this for your homework

thermo_style    custom step vol temp press ke pe etotal enthalpy evdwl ecoul epair ebond eangle edihed eimp emol elong etail lx ly lz xy xz yz density
thermo          ${thermofreq}
thermo          1000

fix npt_density all npt temp ${simulationTemp} ${simulationTemp} 100 iso ${simulationPress} ${simulationPress} 1000
fix npt_density all npt temp 310 ${simulationTemp} 100 iso ${simulationPress} ${simulationPress} 1000
fix npt_density all npt temp 310 310 100 iso ${simulationPress} ${simulationPress} 1000
fix npt_density all npt temp 310 310 100 iso 0.987 ${simulationPress} 1000
fix npt_density all npt temp 310 310 100 iso 0.987 0.987 1000

run 50000
Ewald initialization ...
  using 12-bit tables for long-range coulomb (src/kspace.cpp:332)
  G vector (1/distance) = 0.140701
  estimated absolute RMS force accuracy = 0.0347754
  estimated relative force accuracy = 0.000104725
  KSpace vectors: actual max1d max3d = 128 4 364
                  kxmax kymax kzmax  = 4 4 4
Per MPI rank memory allocation (min/avg/max) = 22.49 | 22.55 | 22.87 Mbytes
Step Volume Temp Press KinEng PotEng TotEng Enthalpy E_vdwl E_coul E_pair E_bond E_angle E_dihed E_impro E_mol E_long E_tail Lx Ly Lz Xy Xz Yz Density 
     518        64000          310    2330.8784     4988.952   -1423.6798    3565.2722    5740.8543   -2105.2356    4220.8927   -2313.0078    42.286151    240.31421     606.7276            0    889.32797   -4428.6649    -42.52282           40           40           40            0            0            0   0.67578079 
    1000    64711.693    230.61165   -1241.3454     3711.324    2922.6005    6633.9246    5462.4003   -1688.1417    4320.6396     -1797.73     1625.009    2183.2797    912.04186            0    4720.3306    -4430.228   -42.055158    40.147723    40.147723    40.147723            0            0            0   0.66834861 
    2000    62791.499    315.51737   -706.35558    5077.7451    3723.3515    8801.0966    8154.2518   -1503.3123    4285.8121   -1645.7928    1721.3708     2590.878    1056.8956            0    5369.1443   -4428.2926   -43.341225    39.746627    39.746627    39.746627            0            0            0   0.68878704 
    3000    60993.681    308.95575    59.004743    4972.1464    3467.0143    8439.1607    8491.6472   -1581.0192    4267.7039   -1742.9898     1633.831    2527.0835    1049.0895            0     5210.004   -4429.6745   -44.618728    39.363612    39.363612    39.363612            0            0            0   0.70908936 
    4000    59089.707    314.50351    683.40138    5061.4287    3386.0755    8447.5042     9036.434   -1619.0809    4248.1958   -1800.8566     1611.689    2535.7068    1039.5363            0    5186.9321   -4429.9715   -46.056422    38.949685    38.949685    38.949685            0            0            0   0.73193747 
    5000    57800.898    308.31157    1.3330377    4961.7795    3430.7615     8392.541    8393.6647    -1635.226    4219.7686   -1847.5892    1670.1123     2567.778    1040.4604            0    5278.3507   -4432.1319    -47.08336    38.664423    38.664423    38.664423            0            0            0   0.74825776 
    6000    57595.862    310.74652    1454.0365    5000.9659    3210.4426    8211.4085    9432.7651   -1641.3205    4179.8685   -1891.6234    1607.6823    2512.9093    981.47435            0     5102.066   -4430.1713   -47.250972    38.618651    38.618651    38.618651            0            0            0   0.75092149 
    7000    57579.009    311.49214   -93.599162    5012.9655    3284.6828    8297.6483    8219.0502   -1657.8195    4141.8306   -1947.1215    1698.2486    2556.2473     977.3084            0    5231.8043   -4431.1325   -47.264802    38.614883    38.614883    38.614883            0            0            0   0.75114128 
    8000    56256.187    316.21778    1003.5293    5089.0172    3127.6677    8216.6849    9040.0193   -1692.6841    4108.5684   -2013.8217    1645.9814    2497.9935    997.51455            0    5141.4894    -4429.706   -48.376198    38.316876    38.316876    38.316876            0            0            0    0.7688038 
    9000    57127.343    308.52007   -92.981298    4965.1349    3129.3564    8094.4913    8017.0246   -1651.5338    4068.3682   -2014.0975     1647.688    2518.2864    977.47941            0    5143.4539   -4430.9319   -47.638492     38.51365     38.51365     38.51365            0            0            0   0.75708003 
   10000    56585.499     313.7251   -717.57727    5048.9015    3157.2329    8206.1344    7613.9599   -1694.5727    4090.0597   -2035.3524    1660.8981    2553.8013    977.88596            0    5192.5853   -4430.8393   -48.094662    38.391497    38.391497    38.391497            0            0            0   0.76432957 
   11000    57126.315    308.40568   -767.65064    4963.2939    3181.9852    8145.2791    7505.7273   -1632.8119    4033.0039    -2031.892    1686.9978    2563.5018    963.37765            0    5213.8772    -4432.084   -47.639349    38.513419    38.513419    38.513419            0            0            0   0.75709365 
   12000    56217.149    308.21748   -447.71885    4960.2651    3142.4774    8102.7426    7735.6716     -1689.53    4023.7661   -2096.5077    1689.3801    2556.2718    993.33323            0    5238.9851   -4430.7438   -48.409791    38.308011    38.308011    38.308011            0            0            0   0.76933767 
   13000    55385.967    313.19541    132.66981     5040.377    2981.8949    8022.2718    8129.4355   -1754.5792    4044.3212   -2142.5427     1628.097    2556.4941     939.8465            0    5124.4376   -4432.2847   -49.136281    38.118276    38.118276    38.118276            0            0            0   0.78088318 
   14000    55971.848    312.71402   -1590.6687    5032.6297    3072.3026    8104.9323    6806.4821   -1751.3986    4068.5846   -2114.6821    1705.3722    2529.5536    952.05884            0    5186.9847   -4431.8681   -48.621951    38.252212    38.252212    38.252212            0            0            0   0.77270935 
   15000    55233.153    307.14227   -375.34517    4942.9614    3088.0628    8031.0242    7728.6766   -1781.6963    4095.8717   -2117.6408    1712.7529     2555.197    937.75374            0    5205.7036   -4431.8162   -49.272227    38.083186    38.083186    38.083186            0            0            0   0.78304366 
   16000     55398.26    315.06787    -715.6496    5070.5111    3048.1044    8118.6156    7540.4231   -1750.2679    4035.8805   -2146.7783    1707.7327    2567.1086    920.04137            0    5194.8827    -4432.391   -49.125378    38.121096    38.121096    38.121096            0            0            0    0.7807099 
   17000    55700.182    304.79852   -589.05715    4905.2425    2981.0306    7886.2731    7407.7643   -1695.4725    4001.0009   -2126.0596    1720.2499    2489.3818    897.45859            0    5107.0902    -4431.588   -48.859094    38.190224    38.190224    38.190224            0            0            0   0.77647807 
   18000    54319.341    310.58653    -514.5569    4998.3913    2997.4878    7995.8791    7588.2513   -1786.6425    4037.6666   -2181.5407    1693.3567    2565.3298    920.34211            0    5179.0286   -4432.5649   -50.101132    37.871993    37.871993    37.871993            0            0            0   0.79621677 
   19000    55344.162    311.31257   -569.00775    5010.0756    3070.0152    8080.0908    7620.8231   -1779.6482    4071.7661   -2138.7438    1760.7214    2538.8087     909.2288            0    5208.7589   -4430.8616   -49.173397    38.108683    38.108683    38.108683            0            0            0   0.78147304 
   20000    55111.926    309.18636   -225.17786    4975.8578    2964.9779    7940.8356    7759.8487    -1760.548     4001.134   -2191.3991    1702.6877     2565.511    888.17825            0    5156.3769   -4431.9851   -49.380609    38.055304    38.055304    38.055304            0            0            0   0.78476608 
   21000    55274.003    305.78742   -132.32353    4921.1572     3028.099    7949.2562    7842.5883    -1774.203    4037.1894   -2170.1778    1661.5971     2639.225    897.45474            0    5198.2768   -4433.1642   -49.235813    38.092573    38.092573    38.092573            0            0            0   0.78246496 
   22000    54598.524     309.6431   -925.12348    4983.2082    2797.3172    7780.5253    7043.8833   -1775.6581    3962.8675   -2245.8605    1683.7854     2493.224     866.1683            0    5043.1777     -4433.07   -49.844946    37.936766    37.936766    37.936766            0            0            0   0.79214541 
   23000    54233.874    309.57694    -1016.253    4982.1435     2832.382    7814.5254    7010.7248   -1850.8488    4042.8732   -2239.7241    1691.7861    2554.1573    826.16264            0     5072.106   -4431.7484   -50.180086     37.85212     37.85212     37.85212            0            0            0   0.79747152 
   24000    54411.133    308.74156    245.42807    4968.6994    2896.0463    7864.7458    8059.5004   -1818.6323    4024.8711    -2226.726    1681.5122    2588.3138    852.94634            0    5122.7723   -4432.9648   -50.016611    37.893314    37.893314    37.893314            0            0            0   0.79487354 
   25000    54733.945    307.97238    -675.7554    4956.3207    2868.8401    7825.1608    7285.7468   -1814.8529    4059.4564   -2187.9141    1652.1473    2579.5792     825.0278            0    5056.7543   -4432.5176   -49.721621    37.968105    37.968105    37.968105            0            0            0   0.79018551 
   26000    54168.562    322.08014    866.11201    5183.3624    2852.6942    8036.0566    8720.2789   -1823.2805    3994.3782   -2260.6603    1690.2482    2549.8212    873.28508            0    5113.3545    -4431.758    -50.24059    37.836919    37.836919    37.836919            0            0            0   0.79843306 
   27000    54543.984    306.75252    111.62549     4936.689    2896.8626    7833.5517    7922.3462   -1807.0578    4012.3644   -2225.5189    1732.2026    2533.9111    856.26779            0    5122.3815   -4430.8254   -49.894787    37.924129    37.924129    37.924129            0            0            0    0.7929375 
   28000    54088.487    309.81934    217.65382    4986.0445    2723.8954    7709.9399    7881.6307   -1845.9187    4000.7822   -2276.7885    1686.7567    2472.8924    841.03484            0     5000.684    -4431.652   -50.314967    37.818266    37.818266    37.818266            0            0            0   0.79961509 
   29000    54180.927    314.37499    333.61783    5059.3605    2777.7691    7837.1296    8100.7454   -1798.0603    3987.5125   -2242.7212    1709.9328    2497.8449     812.7126            0    5020.4902   -4432.1734   -50.229124    37.839798    37.839798    37.839798            0            0            0   0.79825084 
   30000    54942.774    311.21674   -459.90652    5008.5335    2874.2836    7882.8171    7514.3013    -1800.279    3958.8104   -2273.9451    1704.0652    2575.9115    868.25207            0    5148.2287   -4432.4765   -49.532637     38.01633     38.01633     38.01633            0            0            0   0.78718214 
   31000    54270.436    311.13883   -764.35578    5007.2796    2820.3102    7827.5898    7222.6185   -1851.1295    4004.8691   -2277.2167    1667.1963    2599.6051    830.72537            0    5097.5269   -4430.9562   -50.146279    37.860624    37.860624    37.860624            0            0            0   0.79693426 
   32000    54210.364    312.85487    209.95928    5034.8965    2838.6242    7873.5207    8039.5151   -1839.5141     4011.007   -2259.2426     1717.576    2545.6475     834.6433            0    5097.8668   -4430.7356   -50.201848     37.84665     37.84665     37.84665            0            0            0   0.79781738 
   33000    54603.305    305.40552   -310.19138    4915.0112      2827.49    7742.5012    7495.4855   -1787.7878    3953.6444   -2263.1079    1721.3388    2527.1592     842.0999            0    5090.5979   -4428.9645   -49.840581    37.937873    37.937873    37.937873            0            0            0   0.79207605 
   34000    54502.249    305.65097   -379.68287    4918.9614    2795.0001    7713.9615     7412.167   -1814.5771    3972.2999   -2271.1715    1706.3586     2524.553    835.26003            0    5066.1716   -4428.8944   -49.932994    37.914454    37.914454    37.914454            0            0            0   0.79354469 
   35000    55015.922     314.2385   -601.05992    5057.1639     2915.795    7972.9589     7490.698   -1757.3216    3967.8209   -2221.0466    1717.9165    2564.0787    854.84647            0    5136.8417    -4431.546   -49.466779    38.033194    38.033194    38.033194            0            0            0   0.78613552 
   36000    54426.044    310.12973    447.24931    4991.0397    2797.9979    7789.0376    8144.0409   -1770.3189    3944.5204   -2257.6136    1714.3738    2498.3989    842.83886            0    5055.6115   -4431.8151   -50.002908    37.896775    37.896775    37.896775            0            0            0   0.79465577 
   37000    55242.456    305.96852     653.6399    4924.0718    2771.3579    7695.4297    8222.0376   -1791.6727    3989.4178   -2232.4776    1655.4936    2534.2323    814.10968            0    5003.8355   -4430.2228    -49.26393    38.085324    38.085324    38.085324            0            0            0    0.7829118 
   38000     54505.51     311.9212    603.10385    5019.8706     2787.868    7807.7386      8287.15   -1813.3415    3968.0917   -2277.9056    1721.2813    2502.3939     842.0985            0    5065.7736   -4432.6558   -49.930006     37.91521     37.91521     37.91521            0            0            0   0.79349721 
   39000    54648.815    311.62604    1167.6925    5015.1205    2767.2131    7782.3336    8712.9809   -1806.9059    3952.6709   -2287.3044    1707.8489    2512.5952    834.07336            0    5054.5175   -4433.0693   -49.799075     37.94841     37.94841     37.94841            0            0            0   0.79141643 
   40000    54722.126    310.35543   -401.08127     4994.672    2851.2528    7845.9248    7525.8355   -1797.7278    3975.0464   -2255.1251    1697.4467     2583.438     825.4931            0    5106.3779   -4432.4437    -49.73236    37.965371    37.965371    37.965371            0            0            0   0.79035618 
   41000    54517.134    314.87952    1575.8884    5067.4801    2748.0878    7815.5679    9068.5197    -1819.456     3957.004   -2294.0803    1679.6594    2542.7663    819.74238            0    5042.1681   -4431.6283   -49.919361    37.917905    37.917905    37.917905            0            0            0   0.79332803 
   42000    54407.117    308.62114     680.2563    4966.7615    2702.1667    7668.9282    8208.6925   -1876.9138    4023.7278   -2286.2242    1664.3392    2499.6384    824.41337            0    4988.3909   -4433.0382   -50.020303    37.892382    37.892382    37.892382            0            0            0   0.79493222 
   43000    54364.339    307.55215   -503.92301    4949.5577    2740.7694    7690.3272    7290.7927   -1816.5068    4009.5249   -2240.4242    1630.3843    2555.5773    795.23202            0    4981.1937   -4433.4423   -50.059663    37.882448    37.882448    37.882448            0            0            0   0.79555774 
   44000    54520.651    309.86619    -1528.546    4986.7985    2660.5948    7647.3933     6432.004   -1845.0102    3970.7021   -2307.9397    1665.1938    2516.3271     787.0136            0    4968.5345   -4433.6316   -49.916141    37.918721    37.918721    37.918721            0            0            0   0.79327686 
   45000    54649.267    307.89598   -172.24933    4955.0912      2735.85    7690.9412    7553.6579   -1800.4295    3967.1069   -2267.1972     1719.465    2518.3536    765.22857            0    5003.0472   -4433.8746   -49.798664    37.948514    37.948514    37.948514            0            0            0   0.79140989 
   46000    54410.083     311.3301   -1021.2721    5010.3579    2786.7881     7797.146     6986.751   -1811.3382    3979.6704   -2264.9454     1666.307    2590.7988    794.62773            0    5051.7335   -4433.2776   -50.017576     37.89307     37.89307     37.89307            0            0            0   0.79488888 
   47000    54142.251    308.20998   -1234.3513    4960.1444    2775.0744    7735.2188    6760.5637   -1867.3688    3996.1233   -2303.7372    1717.1194    2546.0312      815.661            0    5078.8116   -4432.4917   -50.265004    37.830792    37.830792    37.830792            0            0            0   0.79882106 
   48000    53748.392    304.14542   -241.90021    4894.7319     2725.943    7620.6749    7431.0577   -1852.4901    3988.0387   -2297.2322    1663.0926    2562.8784    797.20419            0    5023.1752   -4432.7809   -50.633337    37.738835    37.738835    37.738835            0            0            0   0.80467468 
   49000    53839.119    307.25293    1743.2701    4944.7423     2734.947    7679.6893    9048.4847   -1829.3587     4000.295   -2261.9577    1680.6128    2525.2533    791.03865            0    4996.9047    -4432.894   -50.548013    37.760058    37.760058    37.760058            0            0            0   0.80331869 
   50000    54401.702    310.47195   -426.91196    4996.5472    2807.8606    7804.4078    7465.6988   -1842.0841    3992.6463   -2283.1419    1748.5103    2537.4986    804.99357            0    5091.0024    -4433.704   -50.025281    37.891125    37.891125    37.891125            0            0            0   0.79501134 
   50518    54453.269    310.65749    1052.1301    4999.5332     2764.684    7764.2172    8599.7611   -1819.5179    3950.6166   -2301.8452    1729.7538     2531.486    805.28938            0    5066.5292   -4432.9439   -49.977908    37.903093    37.903093    37.903093            0            0            0   0.79425847 
Loop time of 250.411 on 48 procs for 50000 steps with 5400 atoms

Performance: 17.252 ns/day, 1.391 hours/ns, 199.672 timesteps/s
65.9% CPU use with 48 MPI tasks x 1 OpenMP threads

MPI task timing breakdown:
Section |  min time  |  avg time  |  max time  |%varavg| %total
---------------------------------------------------------------
Pair    | 87.683     | 103.68     | 114.2      |  62.2 | 41.40
Bond    | 4.1694     | 4.616      | 5.1973     |  10.0 |  1.84
Kspace  | 28.399     | 39.961     | 55.607     | 103.9 | 15.96
Neigh   | 18.303     | 19.133     | 19.767     |  12.1 |  7.64
Comm    | 46.654     | 52.326     | 60.083     |  42.9 | 20.90
Output  | 0.058787   | 0.059552   | 0.066193   |   0.4 |  0.02
Modify  | 19.229     | 23.932     | 27.646     |  41.7 |  9.56
Other   |            | 6.705      |            |       |  2.68

Nlocal:    112.5 ave 128 max 87 min
Histogram: 1 1 4 3 5 3 11 11 3 6
Nghost:    6480.54 ave 6545 max 6435 min
Histogram: 3 3 7 13 5 8 4 3 1 1
Neighs:    78906.8 ave 96674 max 55125 min
Histogram: 2 0 3 2 8 8 14 8 1 2

Total # of neighbors = 3787525
Ave neighs/atom = 701.394
Ave special neighs/atom = 10.4444
Neighbor list builds = 5657
Dangerous builds = 0

unfix npt_density

fix reshape_box all deform 1 x final 0.0 37.4456 y final 0.0 37.4456 z final 0.0 37.4456 units box

run 100000
Ewald initialization ...
  using 12-bit tables for long-range coulomb (src/kspace.cpp:332)
  G vector (1/distance) = 0.142158
  estimated absolute RMS force accuracy = 0.0339353
  estimated relative force accuracy = 0.000102195
  KSpace vectors: actual max1d max3d = 128 4 364
                  kxmax kymax kzmax  = 4 4 4
Per MPI rank memory allocation (min/avg/max) = 22.51 | 22.56 | 22.89 Mbytes
Step Volume Temp Press KinEng PotEng TotEng Enthalpy E_vdwl E_coul E_pair E_bond E_angle E_dihed E_impro E_mol E_long E_tail Lx Ly Lz Xy Xz Yz Density 
   50518    54453.269    310.65749    1051.6914    4999.5332    2764.5052    7764.0385     8599.234   -1819.5179    3996.1566   -2302.0239    1729.7538     2531.486    805.28938            0    5066.5292   -4478.6627   -49.977908    37.903093    37.903093    37.903093            0            0            0   0.79425847 
   51000    54443.766    310.65749    1183.3898    4999.5332    2764.2111    7763.7444    8703.3635   -1818.7635    3996.2619   -2301.1653    1728.6011     2531.486    805.28938            0    5065.3764   -4478.6637   -49.986632    37.900888    37.900888    37.900888            0            0            0   0.79439711 
   52000    54424.053    310.65749    1455.8766    4999.5332     2763.305    7762.8382    8918.3951   -1817.1927    3996.1299   -2299.7287    1726.2583     2531.486    805.28938            0    5063.0337   -4478.6659   -50.004737    37.896313    37.896313    37.896313            0            0            0   0.79468485 
   53000    54404.344    310.65749     1729.234    4999.5332    2762.6472    7762.1804    9134.2092   -1815.6165    3996.1681   -2298.1164    1723.9882     2531.486    805.28938            0    5060.7636    -4478.668   -50.022852    37.891738    37.891738    37.891738            0            0            0   0.79497273 
   54000    54384.641    310.65749    2001.7297    4999.5332    2761.8151    7761.3484    9349.0087   -1814.0345    3995.9536   -2296.7511    1721.7908     2531.486    805.28938            0    5058.5662   -4478.6702   -50.040975    37.887163    37.887163    37.887163            0            0            0   0.79526075 
   55000    54364.942    310.65749    2275.9095    4999.5332    2761.4292    7760.9624     9565.433   -1812.4478    3996.1077   -2295.0123    1719.6662     2531.486    805.28938            0    5056.4415   -4478.6723   -50.059107    37.882588    37.882588    37.882588            0            0            0    0.7955489 
   56000    54345.248    310.65749    2549.4005    4999.5332    2760.9119    7760.4451    9781.0227   -1810.8536    3996.0504   -2293.4776    1717.6142     2531.486    805.28938            0    5054.3895   -4478.6745   -50.077248    37.878013    37.878013    37.878013            0            0            0    0.7958372 
   57000    54325.559    310.65749    2822.3836    4999.5332    2760.3065    7759.8397    9995.9651   -1809.2547    3995.8276   -2292.1037    1715.6349     2531.486    805.28938            0    5052.4102   -4478.6766   -50.095397    37.873438    37.873438    37.873438            0            0            0   0.79612564 
   58000    54305.875    310.65749    3095.9966    4999.5332    2759.8908     7759.424    10211.439   -1807.6497    3995.7156   -2290.6128    1713.7283     2531.486    805.28938            0    5050.5036   -4478.6787   -50.113555    37.868863    37.868863    37.868863            0            0            0   0.79641421 
   59000    54286.195    310.65749    3369.1864    4999.5332    2759.4073    7758.9405    10426.354   -1806.0406     3995.459   -2289.2624    1711.8944     2531.486    805.28938            0    5048.6697   -4478.6809   -50.131722    37.864289    37.864289    37.864289            0            0            0   0.79670292 
   60000     54266.52    310.65749    3643.3293    4999.5332    2759.1921    7758.7253    10642.135   -1804.4245    3995.3911   -2287.7164    1710.1332     2531.486    805.28938            0    5046.9085    -4478.683   -50.149898    37.859714    37.859714    37.859714            0            0            0   0.79699178 
   61000     54246.85    310.65749     3916.959    4999.5332    2758.8881    7758.4213    10857.263   -1802.8021    3995.1554   -2286.3319    1708.4446     2531.486    805.28938            0      5045.22   -4478.6852   -50.168083    37.855139    37.855139    37.855139            0            0            0   0.79728077 
   62000    54227.185    310.65749    4191.5445    4999.5332    2758.8514    7758.3847    11073.259   -1801.1763    3995.1109   -2284.7527    1706.8288     2531.486    805.28938            0    5043.6042   -4478.6873   -50.186276    37.850564    37.850564    37.850564            0            0            0    0.7975699 
   63000    54207.524    310.65749     4465.825    4999.5332    2758.7766    7758.3098    11288.818   -1799.5447    3994.9497   -2283.2844    1705.2857     2531.486    805.28938            0     5042.061   -4478.6895   -50.204478    37.845989    37.845989    37.845989            0            0            0   0.79785917 
   64000    54187.868    310.65749    4739.7994    4999.5332    2758.6636    7758.1968    11503.939    -1797.906    3994.6707    -2281.927    1703.8152     2531.486    805.28938            0    5040.5906   -4478.6916   -50.222689    37.841414    37.841414    37.841414            0            0            0   0.79814859 
   65000    54168.217    310.65749    5014.8412    4999.5332    2758.8456    7758.3788    11720.043   -1796.2621    3994.6086   -2280.3473    1702.4175     2531.486    805.28938            0    5039.1929   -4478.6938   -50.240909    37.836839    37.836839    37.836839            0            0            0   0.79843814 
   66000     54148.57    310.65749    5289.6627    4999.5332    2759.0097    7758.5429    11935.797   -1794.6131    3994.4509   -2278.8581    1701.0924     2531.486    805.28938            0    5037.8678   -4478.6959   -50.259138    37.832264    37.832264    37.832264            0            0            0   0.79872783 
   67000    54128.929    310.65749    5564.1662    4999.5332    2759.1325    7758.6658    12151.101    -1792.958    3994.1731   -2277.4829    1699.8401     2531.486    805.28938            0    5036.6155   -4478.6981   -50.277375    37.827689    37.827689    37.827689            0            0            0   0.79901767 
   68000    54109.292    310.65749    5840.0045    4999.5332    2759.6146    7759.1478    12367.662   -1791.2981    3994.1771   -2275.8212    1698.6604     2531.486    805.28938            0    5035.4358   -4478.7002   -50.295621    37.823114    37.823114    37.823114            0            0            0   0.79930764 
   69000     54089.66    310.65749    6116.7051    4999.5332    2760.3415    7759.8747     12584.99    -1789.632     3994.347   -2273.9874    1697.5535     2531.486    805.28938            0    5034.3288   -4478.7024   -50.313877    37.818539    37.818539    37.818539            0            0            0   0.79959775 
   70000    54070.032    310.65749    6392.1677    4999.5332    2760.8036    7760.3368    12800.919   -1787.9603    3994.1739   -2272.4909    1696.5192     2531.486    805.28938            0    5033.2946   -4478.7045    -50.33214    37.813964    37.813964    37.813964            0            0            0     0.799888 
   71000     54050.41    310.65749    6667.7529    4999.5332     2761.332    7760.8652    13016.853   -1786.2809    3993.9865    -2271.001    1695.5576     2531.486    805.28938            0     5032.333   -4478.7066   -50.350413    37.809389    37.809389    37.809389            0            0            0    0.8001784 
   72000    54030.792    310.65749    6943.0724    4999.5332    2761.8314    7761.3646    13232.392   -1784.5965    3993.6926   -2269.6127    1694.6687     2531.486    805.28938            0    5031.4441   -4478.7088   -50.368695    37.804814    37.804814    37.804814            0            0            0   0.80046893 
   73000    54011.179    310.65749    7219.7388    4999.5332    2762.6926    7762.2259    13449.197   -1782.9066    3993.6823   -2267.9353    1693.8525     2531.486    805.28938            0    5030.6279   -4478.7109   -50.386985     37.80024     37.80024     37.80024            0            0            0   0.80075961 
   74000     53991.57    310.65749    7495.5583    4999.5332    2763.3842    7762.9174    13665.007   -1781.2115    3993.4244   -2266.5002     1693.109     2531.486    805.28938            0    5029.8844   -4478.7131   -50.405285    37.795665    37.795665    37.795665            0            0            0   0.80105043 
   75000    53971.967    310.65749    7773.4095    4999.5332    2764.6031    7764.1363    13882.787   -1779.5107    3993.6154   -2264.6105    1692.4382     2531.486    805.28938            0    5029.2136   -4478.7152   -50.423593     37.79109     37.79109     37.79109            0            0            0   0.80134138 
   76000    53952.368    310.65749    8050.7617    4999.5332    2765.7365    7765.2697    14099.931    -1777.804    3993.6424    -2262.879    1691.8401     2531.486    805.28938            0    5028.6155   -4478.7174    -50.44191    37.786515    37.786515    37.786515            0            0            0   0.80163248 
   77000    53932.773    310.65749    8327.9039    4999.5332    2766.8543    7766.3876    14316.735    -1776.092    3993.5758   -2261.2358    1691.3147     2531.486    805.28938            0    5028.0901   -4478.7195   -50.460236     37.78194     37.78194     37.78194            0            0            0   0.80192372 
   78000    53913.184    310.65749     8605.065    4999.5332    2768.0128     7767.546    14533.438    -1774.373      3993.47   -2259.6246     1690.862     2531.486    805.28938            0    5027.6374   -4478.7216   -50.478571    37.777365    37.777365    37.777365            0            0            0    0.8022151 
   79000    53893.599    310.65749     8882.921    4999.5332    2769.3741    7768.9073    14750.731     -1772.65    3993.4906   -2257.8833     1690.482     2531.486    805.28938            0    5027.2574   -4478.7238   -50.496914     37.77279     37.77279     37.77279            0            0            0   0.80250662 
   80000    53874.019    310.65749    9160.2304    4999.5332    2770.6395    7770.1727    14967.341   -1770.9194    3993.3348   -2256.3106    1690.1747     2531.486    805.28938            0      5026.95   -4478.7259   -50.515267    37.768215    37.768215    37.768215            0            0            0   0.80279828 
   81000    53854.444    310.65749    9438.5647    4999.5332    2772.1878     7771.721    15184.881   -1769.1826    3993.3831   -2254.5276      1689.94     2531.486    805.28938            0    5026.7154   -4478.7281   -50.533628     37.76364     37.76364     37.76364            0            0            0   0.80309009 
   82000    53834.874    310.65749    9716.3598    4999.5332    2773.6411    7773.1743    15401.745   -1767.4402    3993.2581   -2252.9123    1689.7781     2531.486    805.28938            0    5026.5534   -4478.7302   -50.551999    37.759065    37.759065    37.759065            0            0            0   0.80338203 
   83000    53815.308    310.65749    9994.2206    4999.5332    2775.1456    7774.6789    15618.554   -1765.6922     3993.106   -2251.3185    1689.6888     2531.486    805.28938            0    5026.4642   -4478.7324   -50.570378     37.75449     37.75449     37.75449            0            0            0   0.80367412 
   84000    53795.747    310.65749    10272.693    4999.5332    2776.8333    7776.3666    15835.867   -1763.9382    3993.0585   -2249.6143    1689.6723     2531.486    805.28938            0    5026.4476   -4478.7345   -50.588766    37.749915    37.749915    37.749915            0            0            0   0.80396635 
   85000    53776.191    310.65749    10551.397    4999.5332    2778.6115    7778.1447    16053.295   -1762.1801    3993.0244   -2247.8923    1689.7284     2531.486    805.28938            0    5026.5038   -4478.7366   -50.607163     37.74534     37.74534     37.74534            0            0            0   0.80425872 
   86000    53756.639    310.65749    10829.958    4999.5332    2780.3912    7779.9244    16270.454   -1760.4139    3992.9113   -2246.2414    1689.8572     2531.486    805.28938            0    5026.6326   -4478.7388   -50.625569    37.740765    37.740765    37.740765            0            0            0   0.80455123 
   87000    53737.093    310.65749    11109.009    4999.5332    2782.3237    7781.8569    16487.992   -1758.6434    3992.8739   -2244.5104    1690.0588     2531.486    805.28938            0    5026.8341   -4478.7409   -50.643984     37.73619     37.73619     37.73619            0            0            0   0.80484388 
   88000    53717.551    310.65749    11387.559    4999.5332    2784.1711    7783.7044    16704.893   -1756.8656    3992.6714   -2242.9372     1690.333     2531.486    805.28938            0    5027.1084   -4478.7431   -50.662408    37.731616    37.731616    37.731616            0            0            0   0.80513668 
   89000    53698.013    310.65749     11666.88    4999.5332    2786.2394    7785.7726    16922.462   -1755.0829    3992.6123   -2241.2159    1690.6799     2531.486    805.28938            0    5027.4553   -4478.7452   -50.680841    37.727041    37.727041    37.727041            0            0            0   0.80542962 
   90000    53678.481    310.65749     11946.38    4999.5332    2788.3858    7787.9191     17140.09   -1753.2946    3992.5529   -2239.4891    1691.0995     2531.486    805.28938            0    5027.8749   -4478.7474   -50.699282    37.722466    37.722466    37.722466            0            0            0    0.8057227 
   91000    53658.953    310.65749    12225.672    4999.5332    2790.5182    7790.0515    17357.383   -1751.4985     3992.399    -2237.849    1691.5918     2531.486    805.28938            0    5028.3672   -4478.7495   -50.717733    37.717891    37.717891    37.717891            0            0            0   0.80601592 
   92000     53639.43    310.65749    12505.208    4999.5332    2792.7439    7792.2772    17574.802   -1749.6982    3992.2616   -2236.1883    1692.1568     2531.486    805.28938            0    5028.9322   -4478.7516   -50.736193    37.713316    37.713316    37.713316            0            0            0   0.80630928 
   93000    53619.912    310.65749    12785.679    4999.5332      2795.23    7794.7633    17793.054   -1747.8904    3992.3044   -2234.3398    1692.7945     2531.486    805.28938            0    5029.5699   -4478.7538   -50.754661    37.708741    37.708741    37.708741            0            0            0   0.80660279 
   94000    53600.398    310.65749    13065.637    4999.5332    2797.6282    7797.1615    18010.659   -1746.0758    3992.1796    -2232.652    1693.5049     2531.486    805.28938            0    5030.2803   -4478.7559   -50.773139    37.704166    37.704166    37.704166            0            0            0   0.80689644 
   95000    53580.889    310.65749    13346.501    4999.5332     2800.279    7799.8123    18229.066   -1744.2561    3992.2298   -2230.7843     1694.288     2531.486    805.28938            0    5031.0634   -4478.7581   -50.791626    37.699591    37.699591    37.699591            0            0            0   0.80719023 
   96000    53561.385    310.65749    13626.722    4999.5332    2802.8104    7802.3436    18446.692   -1742.4307    3992.0821   -2229.1088    1695.1438     2531.486    805.28938            0    5031.9191   -4478.7602   -50.810121    37.695016    37.695016    37.695016            0            0            0   0.80748417 
   97000    53541.886    310.65749    13907.053    4999.5332    2805.4032    7804.9365    18664.307   -1740.5997    3991.9177   -2227.4444    1696.0722     2531.486    805.28938            0    5032.8476   -4478.7623   -50.828626    37.690441    37.690441    37.690441            0            0            0   0.80777824 
   98000    53522.391    310.65749    14189.192    4999.5332    2808.4658     7807.999    18883.645   -1738.7611    3992.1426    -2225.383    1697.0734     2531.486    805.28938            0    5033.8488   -4478.7645   -50.847139    37.685866    37.685866    37.685866            0            0            0   0.80807246 
   99000    53502.901    310.65749    14470.499    4999.5332     2811.363    7810.8962    19102.008   -1736.9179    3992.1248   -2223.5597    1698.1473     2531.486    805.28938            0    5034.9226   -4478.7666   -50.865662    37.681291    37.681291    37.681291            0            0            0   0.80836683 
  100000    53483.416    310.65749    14751.003    4999.5332    2814.1027    7813.6359     19319.43   -1735.0682    3991.8705   -2221.9665    1699.2938     2531.486    805.28938            0    5036.0692   -4478.7688   -50.884193    37.676716    37.676716    37.676716            0            0            0   0.80866133 
  101000    53463.935    310.65749    15031.937    4999.5332    2816.9808     7816.514    19537.166   -1733.2117     3991.675   -2220.3076    1700.5131     2531.486    805.28938            0    5037.2884   -4478.7709   -50.902734    37.672141    37.672141    37.672141            0            0            0   0.80895598 
  102000     53444.46    310.65749    15313.922    4999.5332    2820.1457    7819.6789     19755.85   -1731.3502    3991.6886   -2218.4347     1701.805     2531.486    805.28938            0    5038.5804    -4478.773   -50.921283    37.667567    37.667567    37.667567            0            0            0   0.80925077 
  103000    53424.989    310.65749    15595.891    4999.5332    2823.3412    7822.8744    19974.392   -1729.4836     3991.655   -2216.6038    1703.1696     2531.486    805.28938            0     5039.945   -4478.7752   -50.939842    37.662992    37.662992    37.662992            0            0            0   0.80954571 
  104000    53405.522    310.65749    15878.293    4999.5332    2826.6757    7826.2089    20193.251   -1727.6101    3991.6807   -2214.7066     1704.607     2531.486    805.28938            0    5041.3823   -4478.7773   -50.958409    37.658417    37.658417    37.658417            0            0            0   0.80984079 
  105000    53386.061    310.65749     16160.32    4999.5332    2829.9562    7829.4895    20411.607   -1725.7284    3991.5718   -2212.9361     1706.117     2531.486    805.28938            0    5042.8923   -4478.7794   -50.976986    37.653842    37.653842    37.653842            0            0            0   0.81013601 
  106000    53366.604    310.65749    16442.369    4999.5332    2833.2763    7832.8095    20629.859   -1723.8422     3991.425   -2211.1988    1707.6997     2531.486    805.28938            0    5044.4751   -4478.7816   -50.995571    37.649267    37.649267    37.649267            0            0            0   0.81043137 
  107000    53347.152    310.65749    16724.982    4999.5332    2836.7661    7836.2994    20848.561   -1721.9496     3991.369   -2209.3643    1709.3551     2531.486    805.28938            0    5046.1305   -4478.7837   -51.014166    37.644692    37.644692    37.644692            0            0            0   0.81072688 
  108000    53327.705    310.65749    17008.703    4999.5332    2840.5559    7840.0891    21068.265    -1720.051    3991.5342   -2207.3027    1711.0832     2531.486    805.28938            0    5047.8586   -4478.7859    -51.03277    37.640117    37.640117    37.640117            0            0            0   0.81102254 
  109000    53308.262    310.65749    17291.424    4999.5332    2844.1416    7843.6748    21286.829   -1718.1462    3991.4164   -2205.5178     1712.884     2531.486    805.28938            0    5049.6594    -4478.788   -51.051382    37.635542    37.635542    37.635542            0            0            0   0.81131833 
  110000    53288.824    310.65749    17575.421    4999.5332    2848.0672    7847.6004    21506.565   -1716.2343    3991.5588   -2203.4657    1714.7575     2531.486    805.28938            0    5051.5329   -4478.7901   -51.070004    37.630967    37.630967    37.630967            0            0            0   0.81161427 
  111000    53269.391    310.65749    17859.232    4999.5332     2851.983    7851.5163    21725.986   -1714.3163    3991.6126    -2201.496    1716.7037     2531.486    805.28938            0    5053.4791   -4478.7923   -51.088635    37.626392    37.626392    37.626392            0            0            0   0.81191036 
  112000    53249.963    310.65749    18142.857    4999.5332    2855.8897     7855.423    21945.095   -1712.3911    3991.5773   -2199.6082    1718.7226     2531.486    805.28938            0    5055.4979   -4478.7944   -51.107275    37.621817    37.621817    37.621817            0            0            0   0.81220659 
  113000    53230.539    310.65749    18425.953    4999.5332    2859.7045    7859.2377    22163.541   -1710.4606    3991.3721    -2197.885    1720.8141     2531.486    805.28938            0    5057.5895   -4478.7965   -51.125924    37.617242    37.617242    37.617242            0            0            0   0.81250296 
  114000     53211.12    310.65749    18709.446    4999.5332    2863.6484    7863.1817    22382.265   -1708.5243    3991.2177   -2196.1054    1722.9784     2531.486    805.28938            0    5059.7538   -4478.7987   -51.144582    37.612667    37.612667    37.612667            0            0            0   0.81279948 
  115000    53191.706    310.65749    18992.888    4999.5332     2867.615    7867.1482    22600.814   -1706.5828    3991.0078   -2194.3758    1725.2154     2531.486    805.28938            0    5061.9907   -4478.8008   -51.163249    37.608092    37.608092    37.608092            0            0            0   0.81309614 
  116000    53172.296    310.65749    19276.654    4999.5332    2871.6941    7871.2273    22819.567   -1704.6328    3990.8295   -2192.6063     1727.525     2531.486    805.28938            0    5064.3004    -4478.803   -51.181925    37.603517    37.603517    37.603517            0            0            0   0.81339294 
  117000    53152.891    310.65749     19561.22    4999.5332    2875.9985    7875.5317    23039.006   -1702.6779    3990.7987   -2190.6843    1729.9074     2531.486    805.28938            0    5066.6828   -4478.8051    -51.20061    37.598943    37.598943    37.598943            0            0            0   0.81368989 
  118000    53133.491    310.65749    19845.608    4999.5332    2880.2959    7879.8292     23258.14    -1700.714    3990.6793   -2188.8419    1732.3624     2531.486    805.28938            0    5069.1378   -4478.8072   -51.219305    37.594368    37.594368    37.594368            0            0            0   0.81398699 
  119000    53114.096    310.65749    20130.336    4999.5332    2884.7088     7884.242    23477.494   -1698.7453    3990.5979   -2186.9568    1734.8902     2531.486    805.28938            0    5071.6655   -4478.8094   -51.238008    37.589793    37.589793    37.589793            0            0            0   0.81428423 
  120000    53094.705    310.65749    20414.915    4999.5332    2889.1205    7888.6538    23696.572   -1696.7705    3990.4366   -2185.1454    1737.4906     2531.486    805.28938            0     5074.266   -4478.8115   -51.256721    37.585218    37.585218    37.585218            0            0            0   0.81458161 
  121000    53075.319    310.65749    20701.257    4999.5332     2893.986    7893.5192    23917.308   -1694.7905    3990.6511   -2182.9531    1740.1637     2531.486    805.28938            0    5076.9391   -4478.8136   -51.275442    37.580643    37.580643    37.580643            0            0            0   0.81487914 
  122000    53055.938    310.65749    20986.458    4999.5332    2898.6153    7898.1485    24136.765   -1692.8025    3990.5487   -2181.0696    1742.9096     2531.486    805.28938            0    5079.6849   -4478.8158   -51.294173    37.576068    37.576068    37.576068            0            0            0   0.81517681 
  123000    53036.561    310.65749    21271.773    4999.5332    2903.3062    7902.8395    24356.212   -1690.8083     3990.429   -2179.1972    1745.7281     2531.486    805.28938            0    5082.5034   -4478.8179   -51.312913    37.571493    37.571493    37.571493            0            0            0   0.81547463 
  124000    53017.189    310.65749    21557.318    4999.5332    2908.0865    7907.6197    24575.767    -1688.808    3990.3199   -2177.3081    1748.6193     2531.486    805.28938            0    5085.3947     -4478.82   -51.331662    37.566918    37.566918    37.566918            0            0            0    0.8157726 
  125000    52997.822    310.65749    21844.092    4999.5332    2913.1926    7912.7258    24796.437   -1686.8034    3990.4595    -2175.166    1751.5832     2531.486    805.28938            0    5088.3586   -4478.8222    -51.35042    37.562343    37.562343    37.562343            0            0            0   0.81607071 
  126000     52978.46    310.65749    22130.204    4999.5332    2918.1766    7917.7098    25016.313   -1684.7896    3990.3954   -2173.2186    1754.6198     2531.486    805.28938            0    5091.3952   -4478.8243   -51.369188    37.557768    37.557768    37.557768            0            0            0   0.81636896 
  127000    52959.102    310.65749    22416.351    4999.5332    2923.2034    7922.7366    25236.099   -1682.7696     3990.295   -2171.3011    1757.7291     2531.486    805.28938            0    5094.5045   -4478.8264   -51.387964    37.553193    37.553193    37.553193            0            0            0   0.81666736 
  128000    52939.749    310.65749    22702.357    4999.5332     2928.232    7927.7652    25455.618    -1680.742    3990.1161   -2169.4545    1760.9111     2531.486    805.28938            0    5097.6864   -4478.8286    -51.40675    37.548618    37.548618    37.548618            0            0            0    0.8169659 
  129000    52920.401    310.65749    22988.734    4999.5332     2933.382    7932.9153    25675.385   -1678.7098    3989.9814   -2167.5591    1764.1658     2531.486    805.28938            0    5100.9411   -4478.8307   -51.425545    37.544043    37.544043    37.544043            0            0            0    0.8172646 
  130000    52901.058    310.65749    23275.134    4999.5332    2938.5727    7938.1059     25895.05   -1676.6706    3989.8076   -2165.6958    1767.4931     2531.486    805.28938            0    5104.2685   -4478.8328   -51.444349    37.539468    37.539468    37.539468            0            0            0   0.81756343 
  131000    52881.719    310.65749     23561.72    4999.5332    2943.8418     7943.375    26114.778   -1674.6251    3989.6332   -2163.8268    1770.8932     2531.486    805.28938            0    5107.6686    -4478.835   -51.463162    37.534894    37.534894    37.534894            0            0            0   0.81786241 
  132000    52862.385    310.65749    23848.939    4999.5332    2949.2955    7948.8287    26335.017   -1672.5729    3989.5641   -2161.8458     1774.366     2531.486    805.28938            0    5111.1413   -4478.8371   -51.481984    37.530319    37.530319    37.530319            0            0            0   0.81816154 
  133000    52843.056    310.65749    24137.205    4999.5332    2955.0314    7954.5646    26556.186   -1670.5145    3989.6983   -2159.6554    1777.9114     2531.486    805.28938            0    5114.6868   -4478.8392   -51.500816    37.525744    37.525744    37.525744            0            0            0   0.81846081 
  134000    52823.731    310.65749    24424.792    4999.5332    2960.6405    7960.1738    26776.544   -1668.4501    3989.6271   -2157.6644    1781.5296     2531.486    805.28938            0    5118.3049   -4478.8414   -51.519656    37.521169    37.521169    37.521169            0            0            0   0.81876023 
  135000    52804.411    310.65749    24713.435    4999.5332    2966.5342    7966.0675    26997.839   -1666.3787    3989.7606   -2155.4616    1785.2204     2531.486    805.28938            0    5121.9958   -4478.8435   -51.538506    37.516594    37.516594    37.516594            0            0            0    0.8190598 
  136000    52785.096    310.65749    25001.071    4999.5332    2972.2244    7971.7576    27217.994   -1664.2991    3989.6098    -2153.535     1788.984     2531.486    805.28938            0    5125.7593   -4478.8456   -51.557365    37.512019    37.512019    37.512019            0            0            0   0.81935951 
  137000    52765.785    310.65749     25289.65    4999.5332    2978.1713    7977.7045    27438.972   -1662.2157    3989.6392   -2151.4242    1792.8202     2531.486    805.28938            0    5129.5956   -4478.8478   -51.576234    37.507444    37.507444    37.507444            0            0            0   0.81965937 
  138000    52746.479    310.65749    25578.903    4999.5332     2984.312    7983.8453    27660.501   -1660.1251    3989.7826   -2149.1925    1796.7291     2531.486    805.28938            0    5133.5045   -4478.8499   -51.595111    37.502869    37.502869    37.502869            0            0            0   0.81995937 
  139000    52727.178    310.65749    25868.107    4999.5332    2990.4758     7990.009    27881.854   -1658.0267    3989.8684   -2147.0104    1800.7108     2531.486    805.28938            0    5137.4861    -4478.852   -51.613998    37.498294    37.498294    37.498294            0            0            0   0.82025953 
  140000    52707.882    310.65749    26156.901    4999.5332    2996.5767      7996.11    28102.668   -1655.9216    3989.8121   -2144.9637    1804.7651     2531.486    805.28938            0    5141.5404   -4478.8542   -51.632894    37.493719    37.493719    37.493719            0            0            0   0.82055982 
  141000     52688.59    310.65749    26445.921    4999.5332    3002.7654    8002.2986    28323.584   -1653.8104    3989.7646   -2142.9021    1808.8921     2531.486    805.28938            0    5145.6674   -4478.8563   -51.651799    37.489144    37.489144    37.489144            0            0            0   0.82086027 
  142000    52669.303    310.65749    26735.134    4999.5332    3009.0336    8008.5668    28544.565    -1651.692    3989.7168   -2140.8336    1813.0918     2531.486    805.28938            0    5149.8672   -4478.8584   -51.670713    37.484569    37.484569    37.484569            0            0            0   0.82116086 
  143000    52650.021    310.65749    27024.686    4999.5332    3015.4164    8014.9496    28765.762   -1649.5666     3989.704   -2138.7232    1817.3642     2531.486    805.28938            0    5154.1396   -4478.8606   -51.689637    37.479994    37.479994    37.479994            0            0            0   0.82146159 
  144000    52630.744    310.65749    27314.441    4999.5332    3021.8806    8021.4138    28987.034   -1647.4363    3989.6949   -2136.6041    1821.7093     2531.486    805.28938            0    5158.4846   -4478.8627    -51.70857    37.475419    37.475419    37.475419            0            0            0   0.82176248 
  145000    52611.471    310.65749    27604.072    4999.5332    3028.3503    8027.8836    29208.056   -1645.2979    3989.6107   -2134.5521    1826.1271     2531.486    805.28938            0    5162.9024   -4478.8648   -51.727512    37.470844    37.470844    37.470844            0            0            0   0.82206351 
  146000    52592.203    310.65749    27892.494    4999.5332    3034.5688     8034.102    29427.738   -1643.1531     3989.196   -2132.8241    1830.6176     2531.486    805.28938            0    5167.3929    -4478.867   -51.746463     37.46627     37.46627     37.46627            0            0            0   0.82236469 
  147000    52572.939    310.65749    28182.983    4999.5332    3041.3099    8040.8432    29649.368   -1640.9996    3989.2225   -2130.6462    1835.1807     2531.486    805.28938            0    5171.9561   -4478.8691   -51.765424    37.461695    37.461695    37.461695            0            0            0   0.82266601 
  148000     52553.68    310.65749     28472.94    4999.5332    3047.9586    8047.4918    29870.335   -1638.8415    3989.0793   -2128.6334    1839.8166     2531.486    805.28938            0     5176.592   -4478.8712   -51.784393     37.45712     37.45712     37.45712            0            0            0   0.82296749 
  149000    52534.426    310.65749    28763.253    4999.5332    3054.7253    8054.2586    30091.533   -1636.6754    3988.9735   -2126.5752    1844.5252     2531.486    805.28938            0    5181.3005   -4478.8733   -51.803373    37.452545    37.452545    37.452545            0            0            0   0.82326911 
  150000    52515.177    310.65749     29053.26    4999.5332    3061.4546    8060.9878    30312.298   -1634.5026    3988.7509   -2124.6272    1849.3064     2531.486    805.28938            0    5186.0818   -4478.8755   -51.822361     37.44797     37.44797     37.44797            0            0            0   0.82357087 
  150518    52505.208    310.65749    29203.627    4999.5332     3064.988    8064.5212    30426.749   -1633.3735     3988.651   -2123.5991    1851.8117     2531.486    805.28938            0    5188.5871   -4478.8766   -51.832201      37.4456      37.4456      37.4456            0            0            0   0.82372725 
Loop time of 409.39 on 48 procs for 100000 steps with 5400 atoms

Performance: 21.105 ns/day, 1.137 hours/ns, 244.266 timesteps/s
69.0% CPU use with 48 MPI tasks x 1 OpenMP threads

MPI task timing breakdown:
Section |  min time  |  avg time  |  max time  |%varavg| %total
---------------------------------------------------------------
Pair    | 145.34     | 208.26     | 254.47     | 167.0 | 50.87
Bond    | 5.8524     | 8.2212     | 10.819     |  33.2 |  2.01
Kspace  | 38.601     | 81.85      | 146.73     | 267.7 | 19.99
Neigh   | 0.029577   | 0.031373   | 0.032693   |   0.6 |  0.01
Comm    | 74.027     | 89.711     | 107.32     |  74.0 | 21.91
Output  | 0.11714    | 0.12879    | 0.1358     |   1.2 |  0.03
Modify  | 0.54795    | 0.65363    | 1.0392     |  14.2 |  0.16
Other   |            | 20.54      |            |       |  5.02

Nlocal:    112.5 ave 129 max 89 min
Histogram: 1 2 3 4 7 2 12 9 2 6
Nghost:    6630.27 ave 6692 max 6591 min
Histogram: 2 5 13 7 7 6 4 2 0 2
Neighs:    81668.8 ave 96867 max 59392 min
Histogram: 1 1 3 4 9 5 7 8 8 2

Total # of neighbors = 3920104
Ave neighs/atom = 725.945
Ave special neighs/atom = 10.4444
Neighbor list builds = 9
Dangerous builds = 0
# >>>>>>>>>  Equilibration run <<<<<<<<<<<<<<<<<<<<<<<<<<<<<<<<<<

fix             NVT_equib all nvt temp ${simulationTemp} ${simulationTemp} 100
fix             NVT_equib all nvt temp 310 ${simulationTemp} 100
fix             NVT_equib all nvt temp 310 310 100

print           "Step Density Temperature Pressure KinEng PotEng TotEng" file Properties_equib_310k.txt
Step Density Temperature Pressure KinEng PotEng TotEng
fix             PRINT_equib all print ${printfreq} "$(v_step) $(v_density) $(v_temp) $(v_press) $(v_pe) $(v_ke) $(v_etotal) $(v_enthalpy)" append Properties_equib_310k.txt title ""
fix             PRINT_equib all print 1000 "$(v_step) $(v_density) $(v_temp) $(v_press) $(v_pe) $(v_ke) $(v_etotal) $(v_enthalpy)" append Properties_equib_310k.txt title ""
# The 'print' and fix print' commands as used above will create a file named 'Properties_equib.txt' which allows you to quickly make plots to test for equilibration


run             ${NVT_equib}
run             100000
Ewald initialization ...
  using 12-bit tables for long-range coulomb (src/kspace.cpp:332)
  G vector (1/distance) = 0.142485
  estimated absolute RMS force accuracy = 0.0338118
  estimated relative force accuracy = 0.000101823
  KSpace vectors: actual max1d max3d = 128 4 364
                  kxmax kymax kzmax  = 4 4 4
Per MPI rank memory allocation (min/avg/max) = 22.51 | 22.56 | 22.89 Mbytes
Step Volume Temp Press KinEng PotEng TotEng Enthalpy E_vdwl E_coul E_pair E_bond E_angle E_dihed E_impro E_mol E_long E_tail Lx Ly Lz Xy Xz Yz Density 
  150518    52505.208    310.65749    29203.952    4999.5332    3064.9972    8064.5304    30427.007   -1633.3713    3998.8997   -2123.5947    1851.8165     2531.486    805.28938            0    5188.5919   -4489.1231   -51.832201      37.4456      37.4456      37.4456            0            0            0   0.82372725 
151000 0.82372724821372100834 307.68441590498497362 1098.0071087469700615 2588.5856303985201521 4951.6863666538301914 7540.271997052340339 8381.0540302146200702
  151000    52505.208    307.68442    1098.0071    4951.6864    2588.5856     7540.272     8381.054   -1951.9788    3995.4589   -2446.9708    1739.3684    2489.3869    806.80101            0    5035.5564   -4490.4508   -51.832201      37.4456      37.4456      37.4456            0            0            0   0.82372725 
152000 0.82372724821372100834 313.40793316290097437 -164.31376111015399033 2631.9504846097797781 5043.797181860280034 7675.7476664700698166 7549.9269344891999935
  152000    52505.208    313.40793   -164.31376    5043.7972    2631.9505    7675.7477    7549.9269   -1917.4265    3991.3734   -2416.7337    1757.9573    2489.5557    801.17131            0    5048.6842   -4490.6807   -51.832201      37.4456      37.4456      37.4456            0            0            0   0.82372725 
153000 0.82372724821372100834 303.12883712286702576 34.891429633890801654 2575.3750042465499064 4878.3716448754003068 7453.7466491219502132 7480.4642240026796571
  153000    52505.208    303.12884     34.89143    4878.3716     2575.375    7453.7466    7480.4642   -1897.2489    3987.2261    -2400.116    1642.8064    2525.7132    806.97142            0     4975.491   -4490.0932   -51.832201      37.4456      37.4456      37.4456            0            0            0   0.82372725 
154000 0.82372724821372100834 309.27225893054901462 95.376926627895997512 2698.5155392305000532 4977.240149216860118 7675.7556884473597165 7748.7891011166802855
  154000    52505.208    309.27226    95.376927    4977.2401    2698.5155    7675.7557    7748.7891    -1930.475    4043.7666   -2376.3797    1668.0085    2585.3974    821.48938            0    5074.8953   -4489.6713   -51.832201      37.4456      37.4456      37.4456            0            0            0   0.82372725 
155000 0.82372724821372100834 307.21905486088797943 334.14430028417899621 2593.7240837401300269 4944.1971282702297685 7537.9212120103602501 7793.7870638108397543
  155000    52505.208    307.21905     334.1443    4944.1971    2593.7241    7537.9212    7793.7871   -1896.1682    3987.7634   -2397.3636    1658.1197    2532.2509    800.71706            0    4991.0877   -4488.9588   -51.832201      37.4456      37.4456      37.4456            0            0            0   0.82372725 
156000 0.82372724821372100834 307.64408305010999811 -290.10619018285302673 2795.0744107922300827 4951.0372741509499974 7746.1116849431800802 7523.9673377237395471
  156000    52505.208    307.64408   -290.10619    4951.0373    2795.0744    7746.1117    7523.9673   -1919.4426    4043.0664    -2366.922    1744.2642    2575.1517    842.58053            0    5161.9964   -4490.5458   -51.832201      37.4456      37.4456      37.4456            0            0            0   0.82372725 
157000 0.82372724821372100834 304.34530136338202055 866.89751217445598286 2619.1732674390200373 4897.9486825279600453 7517.1219499669796278 8180.9353688628998498
  157000    52505.208     304.3453    866.89751    4897.9487    2619.1733    7517.1219    8180.9354   -1913.9092    3987.2914   -2417.1999    1689.0325    2499.1007    848.23987            0    5036.3732   -4490.5821   -51.832201      37.4456      37.4456      37.4456            0            0            0   0.82372725 
158000 0.82372724821372100834 308.57950911013898576 -288.42408312762199785 2721.3789758463899489 4966.0914537876997201 7687.470429634089669 7466.6141299861401421
  158000    52505.208    308.57951   -288.42408    4966.0915     2721.379    7687.4704    7466.6141   -1894.1093    4031.4971   -2352.0351    1733.2038    2528.3365    811.87374            0    5073.4141   -4489.4229   -51.832201      37.4456      37.4456      37.4456            0            0            0   0.82372725 
159000 0.82372724821372100834 307.73107742561302302 -296.10460693243101105 2586.2486910168399845 4952.4373088647198529 7538.6859998815698418 7311.9484574175003218
  159000    52505.208    307.73108   -296.10461    4952.4373    2586.2487     7538.686    7311.9485   -1896.7075    3936.5643   -2447.7879    1720.8449    2515.2027     797.9891            0    5034.0366   -4487.6447   -51.832201      37.4456      37.4456      37.4456            0            0            0   0.82372725 
160000 0.82372724821372100834 310.00351015177801628 373.31559844865199693 2719.0044863749899378 4989.0084628381700895 7708.0129492131500228 7993.8736193075701522
  160000    52505.208    310.00351     373.3156    4989.0085    2719.0045    7708.0129    7993.8736    -1922.931    4029.8491    -2383.267    1719.2585    2575.6408    807.37219            0    5102.2715   -4490.1851   -51.832201      37.4456      37.4456      37.4456            0            0            0   0.82372725 
161000 0.82372724821372100834 311.32123183279901468 883.0040724179409608 2643.1243753093499436 5010.2150763215404368 7653.33945163089993 8329.4862209768198227
  161000    52505.208    311.32123    883.00407    5010.2151    2643.1244    7653.3395    8329.4862   -1875.7941    4014.3641   -2352.5425    1687.6525    2539.0037    769.01066            0    4995.6669   -4491.1125   -51.832201      37.4456      37.4456      37.4456            0            0            0   0.82372725 
162000 0.82372724821372100834 311.3358244089370146 589.53097738123699401 2622.7687462549301927 5010.4499203909199423 7633.218666645850135 8084.6429332340603651
  162000    52505.208    311.33582    589.53098    5010.4499    2622.7687    7633.2187    8084.6429   -1964.6106    4047.2049   -2408.2606    1695.2667    2531.7546    804.00798            0    5031.0293   -4490.8548   -51.832201      37.4456      37.4456      37.4456            0            0            0   0.82372725 
163000 0.82372724821372100834 312.04202150702900553 332.64531208470998536 2628.1765849084499678 5021.8150281507996624 7649.9916130592500849 7904.7096377318302984
  163000    52505.208    312.04202    332.64531     5021.815    2628.1766    7649.9916    7904.7096   -1906.4178    3977.2372   -2421.0706    1717.5748    2548.1316    783.54076            0    5049.2472     -4491.89   -51.832201      37.4456      37.4456      37.4456            0            0            0   0.82372725 
164000 0.82372724821372100834 312.86563313908101236 -110.39329875065000408 2677.9167152506202001 5035.0697342035900874 7712.9864494542098328 7628.454481098389806
  164000    52505.208    312.86563    -110.3933    5035.0697    2677.9167    7712.9864    7628.4545   -1903.5779    3979.6946   -2413.9796    1729.6281    2574.1948    788.07339            0    5091.8963   -4490.0963   -51.832201      37.4456      37.4456      37.4456            0            0            0   0.82372725 
165000 0.82372724821372100834 310.89274176932900673 -74.13044119039709301 2675.4031703991499853 5003.3192171364398746 7678.7223875355903147 7621.958143873809604
  165000    52505.208    310.89274   -74.130441    5003.3192    2675.4032    7678.7224    7621.9581   -1921.5291     3994.407   -2416.3741    1747.3156     2540.198    804.26361            0    5091.7772    -4489.252   -51.832201      37.4456      37.4456      37.4456            0            0            0   0.82372725 
166000 0.82372724821372100834 310.79939600257597476 -236.2186734712529983 2656.6820921357898442 5001.8169669842600342 7658.4990591200503331 7477.6182479031704133
  166000    52505.208     310.7994   -236.21867     5001.817    2656.6821    7658.4991    7477.6182   -1893.9866    3937.3668   -2447.3517    1740.0706    2572.4671    791.49609            0    5104.0338   -4490.7319   -51.832201      37.4456      37.4456      37.4456            0            0            0   0.82372725 
167000 0.82372724821372100834 308.21863250636300791 507.26702035796699874 2539.5880479746401761 4960.283724612630067 7499.8717725872802475 7888.3036810286102991
  167000    52505.208    308.21863    507.26702    4960.2837     2539.588    7499.8718    7888.3037   -1926.1409     3968.763   -2447.8352    1708.4131    2485.5976     793.4125            0    4987.4233   -4490.4573   -51.832201      37.4456      37.4456      37.4456            0            0            0   0.82372725 
168000 0.82372724821372100834 310.09603765595500136 1104.8665481516100044 2570.2723688056398714 4990.4975443687499137 7560.7699131743902399 8406.8044564188403456
  168000    52505.208    310.09604    1104.8665    4990.4975    2570.2724    7560.7699    8406.8045   -1912.9975    3964.2525   -2438.5381    1704.8266    2504.1202     799.8637            0    5008.8104   -4489.7931   -51.832201      37.4456      37.4456      37.4456            0            0            0   0.82372725 
169000 0.82372724821372100834 307.87450960836099512 -282.24282474714897262 2680.5508029144298234 4954.7456194165197303 7635.296422330940004 7419.1733260905402858
  169000    52505.208    307.87451   -282.24282    4954.7456    2680.5508    7635.2964    7419.1733    -1900.219    3973.1598   -2417.4635    1777.7558    2530.4865    789.77197            0    5098.0143   -4490.4044   -51.832201      37.4456      37.4456      37.4456            0            0            0   0.82372725 
170000 0.82372724821372100834 315.33338095202600471 -261.44707324647498581 2552.4835491777298557 5074.7841707172601673 7627.2677198949895683 7427.0686500917399826
  170000    52505.208    315.33338   -261.44707    5074.7842    2552.4835    7627.2677    7427.0687   -1907.2205    3943.9534   -2453.3814    1705.6889    2534.2829    765.89315            0    5005.8649   -4490.1142   -51.832201      37.4456      37.4456      37.4456            0            0            0   0.82372725 
171000 0.82372724821372100834 310.49175756760098466 1169.250762038340099 2557.4666215405500225 4996.8660206068097978 7554.332642147360275 8449.6684055970308691
  171000    52505.208    310.49176    1169.2508     4996.866    2557.4666    7554.3326    8449.6684   -1909.0593    3940.4836   -2459.2175    1717.9219    2508.6133    790.14888            0    5016.6841   -4490.6418   -51.832201      37.4456      37.4456      37.4456            0            0            0   0.82372725 
172000 0.82372724821372100834 308.64212334328300358 298.14599763800401888 2599.2879874192099123 4967.0991292778699062 7566.3871166970802733 7794.6878226545695725
  172000    52505.208    308.64212      298.146    4967.0991     2599.288    7566.3871    7794.6878   -1891.9003    3947.2583   -2433.4315    1713.5824     2498.734    820.40305            0    5032.7195   -4488.7895   -51.832201      37.4456      37.4456      37.4456            0            0            0   0.82372725 
173000 0.82372724821372100834 308.45885220456000297 -1095.6072328660100084 2621.2351801889199123 4964.149674732550011 7585.3848549214699233 6746.4404897546601205
  173000    52505.208    308.45885   -1095.6072    4964.1497    2621.2352    7585.3849    6746.4405   -1914.2338    3914.6394   -2489.1844    1779.3746    2524.8028    806.24221            0    5110.4196   -4489.5901   -51.832201      37.4456      37.4456      37.4456            0            0            0   0.82372725 
174000 0.82372724821372100834 307.90108669894897275 1107.9993687794599282 2607.0485548843998913 4955.173334992369746 7562.2218898767696373 8410.6553422685501573
  174000    52505.208    307.90109    1107.9994    4955.1733    2607.0486    7562.2219    8410.6553   -1877.2483    3919.8339   -2446.6333    1708.2735    2539.3181     806.0902            0    5053.6818   -4489.2189   -51.832201      37.4456      37.4456      37.4456            0            0            0   0.82372725 
175000 0.82372724821372100834 308.41141735674898428 679.7439682979979807 2588.1836222725801235 4963.3862870630100588 7551.5699093355897276 8072.0733843518701178
  175000    52505.208    308.41142    679.74397    4963.3863    2588.1836    7551.5699    8072.0734   -1904.1289     3955.941   -2437.5739    1696.4829    2540.9655    788.30912            0    5025.7575    -4489.386   -51.832201      37.4456      37.4456      37.4456            0            0            0   0.82372725 
176000 0.82372724821372100834 307.14969010681699046 998.64149947215298653 2537.7913363225898138 4943.080813990720344 7480.8721503133101578 8245.5664984988998185
  176000    52505.208    307.14969     998.6415    4943.0808    2537.7913    7480.8722    8245.5665   -1912.2923     3917.188   -2484.1458     1664.905    2571.6218    785.41029            0    5021.9371   -4489.0414   -51.832201      37.4456      37.4456      37.4456            0            0            0   0.82372725 
177000 0.82372724821372100834 308.84887854649002747 -49.448777230163102558 2637.262925541399909 4970.4265221129799102 7607.6894476543802739 7569.8248080488901905
  177000    52505.208    308.84888   -49.448777    4970.4265    2637.2629    7607.6894    7569.8248   -1939.8333    3962.5563    -2466.705    1727.6989    2577.6645    798.60449            0    5103.9679    -4489.428   -51.832201      37.4456      37.4456      37.4456            0            0            0   0.82372725 
178000 0.82372724821372100834 317.9531942846659831 1442.9844042105401059 2622.6569195431998196 5116.9458574710597532 7739.6027770142600275 8844.5458611971207574
  178000    52505.208    317.95319    1442.9844    5116.9459    2622.6569    7739.6028    8844.5459   -1870.3211    3868.3798    -2490.269    1761.6648    2594.4685     756.7926            0    5112.9259   -4488.3277   -51.832201      37.4456      37.4456      37.4456            0            0            0   0.82372725 
179000 0.82372724821372100834 307.21890653956501183 450.07973722375197667 2621.1081419670199466 4944.1947412768204231 7565.3028832438403697 7909.9445103640600792
  179000    52505.208    307.21891    450.07974    4944.1947    2621.1081    7565.3029    7909.9445   -1908.6696    3927.3093   -2471.0228    1715.7777    2593.3841    782.96914            0     5092.131   -4489.6625   -51.832201      37.4456      37.4456      37.4456            0            0            0   0.82372725 
180000 0.82372724821372100834 307.33669249233901155 499.17943804478102265 2386.7811046626898133 4946.0903169588700621 7332.8714216215603301 7715.1103884630801986
  180000    52505.208    307.33669    499.17944    4946.0903    2386.7811    7332.8714    7715.1104   -1928.2245    3940.4684   -2478.0721    1632.0033    2475.2934    757.55658            0    4864.8532   -4490.3161   -51.832201      37.4456      37.4456      37.4456            0            0            0   0.82372725 
181000 0.82372724821372100834 311.94847368095497586 -1251.8861957066199011 2611.6695446155999889 5020.3095261784701506 7631.9790707940701395 6673.3664966777096197
  181000    52505.208    311.94847   -1251.8862    5020.3095    2611.6695    7631.9791    6673.3665    -1890.988    3885.9012   -2494.9463    1732.4784    2588.8408    785.29654            0    5106.6158   -4489.8595   -51.832201      37.4456      37.4456      37.4456            0            0            0   0.82372725 
182000 0.82372724821372100834 307.706571945967994 1040.0594214059199203 2484.9228245018798589 4952.0429325388704456 7436.9657570407498497 8233.3752410714696452
  182000    52505.208    307.70657    1040.0594    4952.0429    2484.9228    7436.9658    8233.3752   -1914.5444    3915.2705   -2487.6624     1659.229    2545.6968    767.65937            0    4972.5852   -4488.3885   -51.832201      37.4456      37.4456      37.4456            0            0            0   0.82372725 
183000 0.82372724821372100834 307.42780203422898921 -599.86916870078005104 2654.3721183190300508 4947.5565786644601758 7601.9286969834902266 7142.5881196103800903
  183000    52505.208     307.4278   -599.86917    4947.5566    2654.3721    7601.9287    7142.5881   -1884.8843    3912.5003   -2461.1442    1722.5736    2591.0582    801.88451            0    5115.5163   -4488.7602   -51.832201      37.4456      37.4456      37.4456            0            0            0   0.82372725 
184000 0.82372724821372100834 308.13524927816098398 998.68904315197698907 2544.8912260607398821 4958.9418055132200607 7503.8330315739603975 8268.5637856001594628
  184000    52505.208    308.13525    998.68904    4958.9418    2544.8912     7503.833    8268.5638   -1883.7456     3908.283   -2464.3246    1666.7998    2530.1777    812.23828            0    5009.2158   -4488.8619   -51.832201      37.4456      37.4456      37.4456            0            0            0   0.82372725 
185000 0.82372724821372100834 308.55310048568600223 989.19636185820195351 2562.0485567581799842 4965.6664494036403994 7527.7150061618203836 8285.1768856837006751
  185000    52505.208     308.5531    989.19636    4965.6664    2562.0486     7527.715    8285.1769   -1906.2127    3882.5244   -2510.5699    1730.2622    2549.2639    793.09246            0    5072.6185   -4486.8815   -51.832201      37.4456      37.4456      37.4456            0            0            0   0.82372725 
186000 0.82372724821372100834 312.58414278100900674 2515.3094686502099648 2587.6548642125799233 5030.5395991159703044 7618.1944633285502277 9544.2539507734400104
  186000    52505.208    312.58414    2515.3095    5030.5396    2587.6549    7618.1945     9544.254   -1914.1362    3971.5974   -2430.8428    1675.8152     2563.449    779.23347            0    5018.4977    -4488.304   -51.832201      37.4456      37.4456      37.4456            0            0            0   0.82372725 
187000 0.82372724821372100834 312.73901377635797871 2206.9531856892399446 2519.6590900923201843 5033.0319989796598747 7552.6910890719700546 9242.6315018214900192
[...]
253000 0.82372724821372100834 316.64452529993900498 1400.7758668927599501 2583.37442739377002 5095.8849325910096013 7679.2593599847896257 8751.88190676845079
  253000    52505.208    316.64453    1400.7759    5095.8849    2583.3744    7679.2594    8751.8819   -1887.9027    3884.0829   -2494.7581    1747.3304    2566.2647    764.53735            0    5078.1325   -4490.9382   -51.832201      37.4456      37.4456      37.4456            0            0            0   0.82372725 
254000 0.82372724821372100834 308.80327471272801176 184.53038698278498941 2492.5932092912898952 4969.6926016729603361 7462.2858109642402269 7603.5871128516801036
254000 0.82372724821372100834 308.80327471272801176 184.53038698278498941 2492.5932092912898952 4969.6926016729603361 7462.2858109642402269 7603.5871128516801036
  254000    52505.208    308.80327    184.53039    4969.6926    2492.5932    7462.2858    7603.5871   -1878.3613    3908.6686   -2460.9765    1689.2959    2495.3286    768.94528            0    4953.5697   -4491.2839   -51.832201      37.4456      37.4456      37.4456            0            0            0   0.82372725 
255000 0.82372724821372100834 313.98183917581002333 -125.66203574513400554 2408.8759114121298808 5053.0332771350504117 7461.9091885471798378 7365.6854199910003445
255000 0.82372724821372100834 313.98183917581002333 -125.66203574513400554 2408.8759114121298808 5053.0332771350504117 7461.9091885471798378 7365.6854199910003445
  255000    52505.208    313.98184   -125.66204    5053.0333    2408.8759    7461.9092    7365.6854   -1893.7916    3935.6989   -2449.0499    1625.9212    2472.2175    759.78702            0    4857.9258   -4490.9572   -51.832201      37.4456      37.4456      37.4456            0            0            0   0.82372725 
256000 0.82372724821372100834 307.38062516129099322 782.87676923394496953 2513.0763465583800098 4946.7973426860698964 7459.873689244450361 8059.3495182335600475
256000 0.82372724821372100834 307.38062516129099322 782.87676923394496953 2513.0763465583800098 4946.7973426860698964 7459.873689244450361 8059.3495182335600475
  256000    52505.208    307.38063    782.87677    4946.7973    2513.0763    7459.8737    8059.3495   -1924.0248    3916.5418    -2499.195    1670.9427     2545.852    795.47664            0    5012.2714    -4491.712   -51.832201      37.4456      37.4456      37.4456            0            0            0   0.82372725 
257000 0.82372724821372100834 309.36438152159399806 -329.90568022047102659 2482.9547162663398012 4978.7227143210902796 7461.6774305874396305 7209.0572368219400232
257000 0.82372724821372100834 309.36438152159399806 -329.90568022047102659 2482.9547162663398012 4978.7227143210902796 7461.6774305874396305 7209.0572368219400232
  257000    52505.208    309.36438   -329.90568    4978.7227    2482.9547    7461.6774    7209.0572   -1928.7537    3905.7444   -2513.9035    1670.4024    2547.9673    778.48846            0    4996.8582   -4490.8941   -51.832201      37.4456      37.4456      37.4456            0            0            0   0.82372725 
258000 0.82372724821372100834 311.73245641770398606 328.62890791854698591 2572.0104863571100395 5016.8330753668196849 7588.8435617239301791 7840.4860867627403422
258000 0.82372724821372100834 311.73245641770398606 328.62890791854698591 2572.0104863571100395 5016.8330753668196849 7588.8435617239301791 7840.4860867627403422
  258000    52505.208    311.73246    328.62891    5016.8331    2572.0105    7588.8436    7840.4861   -1865.7262    3870.6214   -2486.4853    1701.7047    2566.6029    790.18827            0    5058.4958   -4491.3805   -51.832201      37.4456      37.4456      37.4456            0            0            0   0.82372725 
259000 0.82372724821372000914 312.28606957938200139 956.87454837817904263 2539.8566834012899562 5025.7425898023202535 7565.5992732036102097 8298.3112218400292477
259000 0.82372724821372000914 312.28606957938200139 956.87454837817904263 2539.8566834012899562 5025.7425898023202535 7565.5992732036102097 8298.3112218400292477
  259000    52505.208    312.28607    956.87455    5025.7426    2539.8567    7565.5993    8298.3112   -1907.3587    3878.5765   -2519.2419     1739.731    2545.1978    774.16969            0    5059.0985   -4490.4597   -51.832201      37.4456      37.4456      37.4456            0            0            0   0.82372725 
260000 0.82372724821372100834 307.14948710357202799 2451.5359129347298222 2468.1803531491400463 4943.0775469796199104 7411.2579001287604115 9288.4837694583402481
260000 0.82372724821372100834 307.14948710357202799 2451.5359129347298222 2468.1803531491400463 4943.0775469796199104 7411.2579001287604115 9288.4837694583402481
  260000    52505.208    307.14949    2451.5359    4943.0775    2468.1804    7411.2579    9288.4838   -1842.4229    3885.8779   -2446.5787    1591.7826     2529.253    793.72349            0    4914.7591   -4490.0337   -51.832201      37.4456      37.4456      37.4456            0            0            0   0.82372725 
261000 0.82372724821372100834 305.72518817243098965 75.425107813981995264 2510.3190614358900348 4920.1557438761801677 7430.4748053120702025 7488.2304200017497351
261000 0.82372724821372100834 305.72518817243098965 75.425107813981995264 2510.3190614358900348 4920.1557438761801677 7430.4748053120702025 7488.2304200017497351
  261000    52505.208    305.72519    75.425108    4920.1557    2510.3191    7430.4748    7488.2304   -1884.1683    3844.0253   -2530.2268    1693.8725    2548.9898     797.6836            0    5040.5459   -4490.0839   -51.832201      37.4456      37.4456      37.4456            0            0            0   0.82372725 
262000 0.82372724821372100834 309.70984235723000211 1432.1974727380199965 2520.6402343694699084 4984.2823514740002793 7504.9225858434701877 8601.6057433803307504
262000 0.82372724821372100834 309.70984235723000211 1432.1974727380199965 2520.6402343694699084 4984.2823514740002793 7504.9225858434701877 8601.6057433803307504
  262000    52505.208    309.70984    1432.1975    4984.2824    2520.6402    7504.9226    8601.6057   -1835.2177    3856.4922   -2469.4817    1709.2353    2501.3168    779.56978            0    4990.1219   -4490.7562   -51.832201      37.4456      37.4456      37.4456            0            0            0   0.82372725 
263000 0.82372724821372100834 308.89518044097900429 1716.5914797152499887 2373.978265327869849 4971.1716767189300299 7345.1499420467998789 8659.6034304864806472
263000 0.82372724821372100834 308.89518044097900429 1716.5914797152499887 2373.978265327869849 4971.1716767189300299 7345.1499420467998789 8659.6034304864806472
  263000    52505.208    308.89518    1716.5915    4971.1717    2373.9783    7345.1499    8659.6034   -1840.0058    3808.2127    -2522.392    1648.8963    2468.6678    778.80616            0    4896.3703    -4490.599   -51.832201      37.4456      37.4456      37.4456            0            0            0   0.82372725 
264000 0.82372724821372100834 310.00598026572902199 1373.8346848746800788 2468.7524226743698819 4989.0482153538696366 7457.800638028240428 8509.7933896015492792
264000 0.82372724821372100834 310.00598026572902199 1373.8346848746800788 2468.7524226743698819 4989.0482153538696366 7457.800638028240428 8509.7933896015492792
  264000    52505.208    310.00598    1373.8347    4989.0482    2468.7524    7457.8006    8509.7934   -1904.4588    3860.1743   -2533.3003    1659.4498    2548.6841     793.9188            0    5002.0527   -4489.0158   -51.832201      37.4456      37.4456      37.4456            0            0            0   0.82372725 
265000 0.82372724821372100834 309.374957084414973 -91.229285035424496186 2440.2711324128199522 4978.8929110146300445 7419.1640434274504514 7349.3066234299103598
265000 0.82372724821372100834 309.374957084414973 -91.229285035424496186 2440.2711324128199522 4978.8929110146300445 7419.1640434274504514 7349.3066234299103598
  265000    52505.208    309.37496   -91.229285    4978.8929    2440.2711     7419.164    7349.3066   -1879.7204    3864.6903   -2504.9853    1682.0778    2486.8299    776.34863            0    4945.2564   -4489.9551   -51.832201      37.4456      37.4456      37.4456            0            0            0   0.82372725 
266000 0.82372724821372100834 313.92067895816302325 913.53420527341097568 2544.7261321483401844 5052.0490016883595672 7596.7751338366997516 8296.2998822234203544
266000 0.82372724821372100834 313.92067895816302325 913.53420527341097568 2544.7261321483401844 5052.0490016883595672 7596.7751338366997516 8296.2998822234203544
  266000    52505.208    313.92068    913.53421     5052.049    2544.7261    7596.7751    8296.2999   -1881.4117    3886.8975   -2484.9848    1730.3676     2523.823    775.52034            0    5029.7109   -4490.4707   -51.832201      37.4456      37.4456      37.4456            0            0            0   0.82372725 
267000 0.82372724821372100834 313.55942321337300882 -672.2244530782450056 2456.2609158145801302 5046.2351708477899592 7502.4960866623696347 6987.7505646178797178
267000 0.82372724821372100834 313.55942321337300882 -672.2244530782450056 2456.2609158145801302 5046.2351708477899592 7502.4960866623696347 6987.7505646178797178
  267000    52505.208    313.55942   -672.22445    5046.2352    2456.2609    7502.4961    6987.7506   -1906.5567    3883.7555   -2513.7205    1665.7324    2535.8657     768.3833            0    4969.9814   -4490.9193   -51.832201      37.4456      37.4456      37.4456            0            0            0   0.82372725 
268000 0.82372724821372100834 305.50992931988599821 -251.11998180250500923 2552.1179501789802089 4916.6914984664399526 7468.8094486454201615 7276.5181900683001004
268000 0.82372724821372100834 305.50992931988599821 -251.11998180250500923 2552.1179501789802089 4916.6914984664399526 7468.8094486454201615 7276.5181900683001004
  268000    52505.208    305.50993   -251.11998    4916.6915     2552.118    7468.8094    7276.5182   -1906.4104    3873.6738   -2524.0866    1706.5405    2604.0379    765.62621            0    5076.2046   -4491.3501   -51.832201      37.4456      37.4456      37.4456            0            0            0   0.82372725 
269000 0.82372724821372100834 310.09249988564801015 354.48927663683400624 2488.2054073958602203 4990.440609639230388 7478.646017035100158 7750.0907211454996286
269000 0.82372724821372100834 310.09249988564801015 354.48927663683400624 2488.2054073958602203 4990.440609639230388 7478.646017035100158 7750.0907211454996286
  269000    52505.208     310.0925    354.48928    4990.4406    2488.2054     7478.646    7750.0907   -1893.8689    3892.1907   -2492.6403    1705.4933    2521.2793    754.07304            0    4980.8457   -4490.9621   -51.832201      37.4456      37.4456      37.4456            0            0            0   0.82372725 
270000 0.82372724821372100834 315.40015958527800422 272.75868075508600441 2567.5508153225500791 5075.8588655368903346 7643.4096808594504182 7852.2704399028298212
270000 0.82372724821372100834 315.40015958527800422 272.75868075508600441 2567.5508153225500791 5075.8588655368903346 7643.4096808594504182 7852.2704399028298212
  270000    52505.208    315.40016    272.75868    5075.8589    2567.5508    7643.4097    7852.2704   -1916.8171    3949.4599   -2456.9972    1715.7913    2546.4775    762.27923            0    5024.5481     -4489.64   -51.832201      37.4456      37.4456      37.4456            0            0            0   0.82372725 
271000 0.82372724821372100834 304.91827612228502176 -542.17552228706097139 2555.5313555660800375 4907.1697907656098323 7462.701146331700329 7047.5385901625104452
271000 0.82372724821372100834 304.91827612228502176 -542.17552228706097139 2555.5313555660800375 4907.1697907656098323 7462.701146331700329 7047.5385901625104452
  271000    52505.208    304.91828   -542.17552    4907.1698    2555.5314    7462.7011    7047.5386   -1902.4527    3876.0214   -2516.8615    1736.2731     2558.058    778.06173            0    5072.3928   -4490.4302   -51.832201      37.4456      37.4456      37.4456            0            0            0   0.82372725 
272000 0.82372724821372100834 309.61886808629799361 -137.90472838445199955 2438.1085932567398231 4982.8182667371502248 7420.9268599938895932 7315.3284380983395749
272000 0.82372724821372100834 309.61886808629799361 -137.90472838445199955 2438.1085932567398231 4982.8182667371502248 7420.9268599938895932 7315.3284380983395749
  272000    52505.208    309.61887   -137.90473    4982.8183    2438.1086    7420.9269    7315.3284   -1921.6262    3914.2304    -2497.423    1665.1394    2499.7184    770.67382            0    4935.5316   -4490.0271   -51.832201      37.4456      37.4456      37.4456            0            0            0   0.82372725 
273000 0.82372724821372100834 311.46148654922899368 -239.17476230447400098 2480.9151780989400322 5012.4722506576699743 7493.3874287566095518 7310.2430380422802045
273000 0.82372724821372100834 311.46148654922899368 -239.17476230447400098 2480.9151780989400322 5012.4722506576699743 7493.3874287566095518 7310.2430380422802045
  273000    52505.208    311.46149   -239.17476    5012.4723    2480.9152    7493.3874     7310.243   -1884.5664    3863.8667   -2510.4234    1651.8505     2563.994    775.49404            0    4991.3386   -4489.7237   -51.832201      37.4456      37.4456      37.4456            0            0            0   0.82372725 
274000 0.82372724821372100834 309.50256392849797749 -286.70952541461701912 2507.355367453530107 4980.9465381646496098 7488.3019056181801716 7268.7585021331296957
274000 0.82372724821372100834 309.50256392849797749 -286.70952541461701912 2507.355367453530107 4980.9465381646496098 7488.3019056181801716 7268.7585021331296957
  274000    52505.208    309.50256   -286.70953    4980.9465    2507.3554    7488.3019    7268.7585    -1908.949    3897.5786   -2501.6684    1719.7197    2499.9912    789.31287            0    5009.0238    -4490.298   -51.832201      37.4456      37.4456      37.4456            0            0            0   0.82372725 
275000 0.82372724821372100834 309.5096882183719913 82.953692679286902489 2432.0232798779197765 4981.0611921647196141 7413.0844720426302956 7476.6049846455098304
275000 0.82372724821372100834 309.5096882183719913 82.953692679286902489 2432.0232798779197765 4981.0611921647196141 7413.0844720426302956 7476.6049846455098304
  275000    52505.208    309.50969    82.953693    4981.0612    2432.0233    7413.0845     7476.605   -1922.1057    3883.9805   -2527.4926    1713.3705     2492.946    753.19941            0    4959.5159   -4489.3674   -51.832201      37.4456      37.4456      37.4456            0            0            0   0.82372725 
276000 0.82372724821372000914 311.29894707573799906 1247.9829968661599651 2557.2859328869399178 5009.8564389579996714 7567.1423718449395892 8522.766131562209921
276000 0.82372724821372000914 311.29894707573799906 1247.9829968661599651 2557.2859328869399178 5009.8564389579996714 7567.1423718449395892 8522.766131562209921
  276000    52505.208    311.29895     1247.983    5009.8564    2557.2859    7567.1424    8522.7661   -1891.3072    3910.7909   -2471.3197    1754.0332    2506.0685    768.50391            0    5028.6056   -4490.8033   -51.832201      37.4456      37.4456      37.4456            0            0            0   0.82372725 
277000 0.82372724821372100834 304.68808809621202727 -2076.5587411979299759 2479.104856031539839 4903.4652842922596392 7382.5701403237899285 5792.4772652442097751
277000 0.82372724821372100834 304.68808809621202727 -2076.5587411979299759 2479.104856031539839 4903.4652842922596392 7382.5701403237899285 5792.4772652442097751
  277000    52505.208    304.68809   -2076.5587    4903.4653    2479.1049    7382.5701    5792.4773   -1924.7841    3916.8382   -2498.0365     1699.472    2535.2352    742.43407            0    4977.1414   -4490.0906   -51.832201      37.4456      37.4456      37.4456            0            0            0   0.82372725 
278000 0.82372724821372100834 309.41489952960097298 530.729351713863025 2511.4762800805101506 4979.5357205007603625 7491.0120005812696036 7897.4098279160198217
278000 0.82372724821372100834 309.41489952960097298 530.729351713863025 2511.4762800805101506 4979.5357205007603625 7491.0120005812696036 7897.4098279160198217
  278000    52505.208     309.4149    530.72935    4979.5357    2511.4763     7491.012    7897.4098    -1887.124    3908.0208   -2469.1955    1703.6018    2544.5225    732.54748            0    4980.6718   -4490.0924   -51.832201      37.4456      37.4456      37.4456            0            0            0   0.82372725 
279000 0.82372724821372100834 313.58535020867799403 1721.1243223542398937 2484.8414183106501696 5046.6524241844699645 7531.4938424951196794 8849.4182853754900862
279000 0.82372724821372100834 313.58535020867799403 1721.1243223542398937 2484.8414183106501696 5046.6524241844699645 7531.4938424951196794 8849.4182853754900862
  279000    52505.208    313.58535    1721.1243    5046.6524    2484.8414    7531.4938    8849.4183   -1871.3354    3880.4575   -2479.7195    1694.0615    2524.2039    746.29559            0    4964.5609   -4488.8417   -51.832201      37.4456      37.4456      37.4456            0            0            0   0.82372725 
280000 0.82372724821372100834 311.19615252674202566 -47.350375831968001705 2607.9466279000498616 5008.2021258354698148 7616.1487537355296809 7579.8909326833199884
280000 0.82372724821372100834 311.19615252674202566 -47.350375831968001705 2607.9466279000498616 5008.2021258354698148 7616.1487537355296809 7579.8909326833199884
  280000    52505.208    311.19615   -47.350376    5008.2021    2607.9466    7616.1488    7579.8909   -1912.6378    3951.9452   -2450.0594    1729.2819    2598.5377    730.18647            0     5058.006   -4489.3668   -51.832201      37.4456      37.4456      37.4456            0            0            0   0.82372725 
  280518    52505.208    314.66701   -1736.2722      5064.06    2447.2906    7511.3506    6181.8269   -1947.7855    3932.8357   -2504.8817    1702.8825    2508.0629    741.22693            0    4952.1723    -4489.932   -51.832201      37.4456      37.4456      37.4456            0            0            0   0.82372725 
Loop time of 136.653 on 48 procs for 30000 steps with 5400 atoms

Performance: 18.968 ns/day, 1.265 hours/ns, 219.534 timesteps/s
69.0% CPU use with 48 MPI tasks x 1 OpenMP threads

MPI task timing breakdown:
Section |  min time  |  avg time  |  max time  |%varavg| %total
---------------------------------------------------------------
Pair    | 55         | 59.214     | 63.329     |  26.5 | 43.33
Bond    | 2.1496     | 2.4798     | 2.8919     |   9.1 |  1.81
Kspace  | 16.929     | 20.655     | 26.284     |  48.5 | 15.12
Neigh   | 12.381     | 12.957     | 13.527     |  10.1 |  9.48
Comm    | 27.416     | 31.371     | 37.605     |  37.3 | 22.96
Output  | 0.16314    | 0.16345    | 0.1636     |   0.0 |  0.12
Modify  | 2.0422     | 6.0616     | 8.2384     |  56.8 |  4.44
Other   |            | 3.752      |            |       |  2.75

Nlocal:    112.5 ave 128 max 96 min
Histogram: 1 2 4 6 9 11 5 6 0 4
Nghost:    6614.75 ave 6703 max 6559 min
Histogram: 3 11 4 6 10 7 2 4 0 1
Neighs:    81750.9 ave 93097 max 70963 min
Histogram: 3 3 6 5 6 8 9 5 0 3

Total # of neighbors = 3924045
Ave neighs/atom = 726.675
Ave special neighs/atom = 10.4444
Neighbor list builds = 3391
Dangerous builds = 0

write_data      restart.${NAME}.final.data
write_data      restart.octanol_310k.final.data
Ewald initialization ...
  using 12-bit tables for long-range coulomb (src/kspace.cpp:332)
  G vector (1/distance) = 0.142485
  estimated absolute RMS force accuracy = 0.0338118
  estimated relative force accuracy = 0.000101823
  KSpace vectors: actual max1d max3d = 128 4 364
                  kxmax kymax kzmax  = 4 4 4
Total wall time: 0:21:01
