
variable        infile index octanol.data   # The name of the (edited) data file

#>>>>>> Simulation settings <<<<<<<

units		 real		#angstroms = length -
atom_style	 full		#How the atoms are defined in the input data file
boundary        p p p           #periodic box in x, y and z
pair_style	 lj/cut/coul/long 14.0    #'lj/cut/coul/long 12.0' for your ethanol simulation
pair_modify     tail yes            #Tail corrections
pair_modify     mix arithmetic      #Lorentz-Berthelot pair interactions between dissimilar atom

# The settings below are additional settings you must add for your ethanol simulation as already detailed in your example NPT LAMMPS script in the tutorial
# For your ethanol homework, change/edit the pair_style line as advised above and uncomment the extra settings below and you should be good to go for this section.

special_bonds   lj/coul 0.0 0.0 0.5
kspace_style    ewald 0.0001
bond_style      harmonic
angle_style     harmonic
dihedral_style  opls


# >>> Using the variable command in LAMMPS to define inputs/settings for the simulation <<<<<<

variable   simulationTemp  index 333     #Simulation temperature
variable   simulationPress equal 0.987	#Simulation pressure

# Output files frequencies
variable        dumpfreq   index 1000          #Output frequency of dump information to dump
variable        thermofreq index 1000          #Output frequency of property information to log
variable        printfreq  index 1000          #Output frequency of information to be printed
variable        restartfreq index 1000000      #Output frequency of restart files


# Simulation run times (equilibration and production)
variable        NVT_equib  index 100000       # Equilibration run length (in timesteps)
variable        NVT_prod   index 30000       # Simulation run length  (in timesteps)


# Defining properties to output
# The first expression after the 'variable' command is a user defined name for the variable, it can be anything
# The expression after the 'equal' keyword are LAMMPS special/reserved terms for those property

variable    step        equal step
variable    density     equal density
variable    temp        equal temp
variable    press       equal press
variable    ke          equal ke
variable    pe          equal pe
variable    etotal      equal etotal
variable    enthalpy    equal enthalpy


# >>>>>>>>>>> Reading data, Neighbor list settings, energy minimization, assigning initial velocities & specifying thermodynamic property output style to log files <<<<<<<<<

read_data	${infile}
read_data	octanol.data
  orthogonal box = (0 0 0) to (40 40 40)
  3 by 4 by 4 MPI processor grid
  reading atoms ...
  5400 atoms
  scanning bonds ...
  1 = max bonds/atom
  scanning angles ...
  6 = max angles/atom
  scanning dihedrals ...
  10 = max dihedrals/atom
  reading bonds ...
  5200 bonds
  reading angles ...
  9800 angles
  reading dihedrals ...
  13200 dihedrals
  4 = max # of 1-2 neighbors
  6 = max # of 1-3 neighbors
  12 = max # of 1-4 neighbors
  16 = max # of special neighbors
  special bonds CPU = 0.0202398 secs
  read_data CPU = 0.0843684 secs
neighbor        1.0 bin
neigh_modify    delay 0 every 1 check yes page 1000000 one 20000
timestep        1.0

minimize        1e-4 1e-6 10000 100000        #Energy minimize before creating velocities
Ewald initialization ...
  using 12-bit tables for long-range coulomb (src/kspace.cpp:332)
  G vector (1/distance) = 0.140701
  estimated absolute RMS force accuracy = 0.0347754
  estimated relative force accuracy = 0.000104725
  KSpace vectors: actual max1d max3d = 128 4 364
                  kxmax kymax kzmax  = 4 4 4
Neighbor list info ...
  update every 1 steps, delay 0 steps, check yes
  max neighbors/atom: 20000, page size: 1000000
  master list distance cutoff = 15
  ghost atom cutoff = 15
  binsize = 7.5, bins = 6 6 6
  1 neighbor lists, perpetual/occasional/extra = 1 0 0
  (1) pair lj/cut/coul/long, perpetual
      attributes: half, newton on
      pair build: half/bin/newton
      stencil: half/bin/3d/newton
      bin: standard
Per MPI rank memory allocation (min/avg/max) = 23.62 | 23.67 | 23.84 Mbytes
Step Temp E_pair E_mol TotEng Press 
       0            0     3405.817    1701.0249    5106.8419    4097.4389 
     518            0   -2313.0078    889.32797   -1423.6798   -1232.5021 
Loop time of 6.08259 on 48 procs for 518 steps with 5400 atoms

60.5% CPU use with 48 MPI tasks x 1 OpenMP threads

Minimization stats:
  Stopping criterion = energy tolerance
  Energy initial, next-to-last, final = 
         5106.84193569     -1423.57203144     -1423.67981613
  Force two-norm initial, final = 3350.81 23.069
  Force max component initial, final = 845.808 2.76546
  Final line search alpha, max atom move = 0.0129189 0.0357266
  Iterations, force evaluations = 518 1030

MPI task timing breakdown:
Section |  min time  |  avg time  |  max time  |%varavg| %total
---------------------------------------------------------------
Pair    | 1.1117     | 2.4332     | 3.8641     |  43.5 | 40.00
Bond    | 0.055262   | 0.088993   | 0.12462    |   5.4 |  1.46
Kspace  | 0.42675    | 1.9208     | 3.2706     |  50.2 | 31.58
Neigh   | 0.13026    | 0.13587    | 0.1413     |   1.0 |  2.23
Comm    | 0.82319    | 0.93804    | 1.1403     |   6.8 | 15.42
Output  | 0          | 0          | 0          |   0.0 |  0.00
Modify  | 0          | 0          | 0          |   0.0 |  0.00
Other   |            | 0.5657     |            |       |  9.30

Nlocal:    112.5 ave 146 max 70 min
Histogram: 4 4 2 3 3 11 4 6 6 5
Nghost:    5652.17 ave 5831 max 5357 min
Histogram: 15 1 0 0 0 0 0 0 11 21
Neighs:    69014.7 ave 109982 max 28120 min
Histogram: 2 3 6 7 7 4 8 5 3 3

Total # of neighbors = 3312706
Ave neighs/atom = 613.464
Ave special neighs/atom = 10.4444
Neighbor list builds = 39
Dangerous builds = 0
#velocity	all create ${simulationTemp} 886874 mom yes rot yes dist gaussian

velocity        all create  ${simulationTemp} 317879265 units box
velocity        all create  333 317879265 units box
velocity        all zero linear units box

# The 'velocity' command line above assigns initial velocities to the atoms in our data file, see the LAMMPS 'velocity' command
# The number '886874' is the seed number which helps LAMMPS to consistently assign the same randomized velocities for the same simulation with the same seed number
# Changing that seed number for your simulation of a given system is one easy way to run an 'independent' simulation of the same system as taught in class
# You will need to do this for your homework

thermo_style    custom step vol temp press ke pe etotal enthalpy evdwl ecoul epair ebond eangle edihed eimp emol elong etail lx ly lz xy xz yz density
thermo          ${thermofreq}
thermo          1000

fix npt_density all npt temp ${simulationTemp} ${simulationTemp} 100 iso ${simulationPress} ${simulationPress} 1000
fix npt_density all npt temp 333 ${simulationTemp} 100 iso ${simulationPress} ${simulationPress} 1000
fix npt_density all npt temp 333 333 100 iso ${simulationPress} ${simulationPress} 1000
fix npt_density all npt temp 333 333 100 iso 0.987 ${simulationPress} 1000
fix npt_density all npt temp 333 333 100 iso 0.987 0.987 1000

run 50000
Ewald initialization ...
  using 12-bit tables for long-range coulomb (src/kspace.cpp:332)
  G vector (1/distance) = 0.140701
  estimated absolute RMS force accuracy = 0.0347754
  estimated relative force accuracy = 0.000104725
  KSpace vectors: actual max1d max3d = 128 4 364
                  kxmax kymax kzmax  = 4 4 4
Per MPI rank memory allocation (min/avg/max) = 22.49 | 22.55 | 22.87 Mbytes
Step Volume Temp Press KinEng PotEng TotEng Enthalpy E_vdwl E_coul E_pair E_bond E_angle E_dihed E_impro E_mol E_long E_tail Lx Ly Lz Xy Xz Yz Density 
     518        64000          333    2595.2582       5359.1   -1423.6798    3935.4202    6357.7677   -2105.2356    4220.8927   -2313.0078    42.286151    240.31421     606.7276            0    889.32797   -4428.6649    -42.52282           40           40           40            0            0            0   0.67578079 
    1000    65036.624    247.94709   -1274.9774      3990.31    3239.5495    7229.8595     6020.553   -1663.2541    4343.7124   -1749.3782    1719.7325    2327.5545    941.64077            0    4988.9277   -4429.8365   -41.845045    40.214808    40.214808    40.214808            0            0            0   0.66500946 
    2000    63288.071    339.98868   -564.50161    5471.5716      4135.46    9607.0315    9086.0013   -1481.2976    4350.5432   -1562.1935    1859.0742    2784.1052    1054.4741            0    5697.6534    -4431.439    -43.00116    39.851128    39.851128    39.851128            0            0            0   0.68338266 
    3000    61711.077    333.50626   -479.89575    5367.2475    3880.2003    9247.4478    8815.5451   -1525.2565    4284.6706   -1673.1019    1806.1441    2687.3462    1059.8119            0    5553.3022   -4432.5161   -44.100032     39.51734     39.51734     39.51734            0            0            0   0.70084615 
    4000    59038.965    336.04356   -358.49867    5408.0812    3762.6687    9170.7499    8862.0744   -1605.3528    4185.3604   -1851.2339    1777.7163    2746.4917    1089.6946            0    5613.9025   -4431.2415   -46.096006    38.938532    38.938532    38.938532            0            0            0   0.73256654 
    5000    58671.927    340.86326   -533.59642    5485.6465    3676.0123    9161.6588    8705.0764   -1574.3415    4153.0139   -1852.1445     1820.646    2639.4972    1068.0137            0    5528.1568   -4430.8169   -46.384372    38.857672    38.857672    38.857672            0            0            0   0.73714931 
    6000    57734.879    330.69849   -1218.9664    5322.0608    3572.1838    8894.2447    7867.8701   -1630.0899    4144.7685   -1916.0131    1774.0355    2688.9535    1025.2078            0    5488.1969   -4430.6916   -47.137198    38.649696    38.649696    38.649696            0            0            0   0.74911337 
    7000     57609.94    339.38343   -796.94058    5461.8311    3602.4439     9064.275       8394.7   -1624.0862    4162.9747   -1893.7787    1835.8702    2650.1281    1010.2243            0    5496.2226   -4432.6671   -47.239426    38.621797    38.621797    38.621797            0            0            0   0.75073799 
    8000    56750.557    330.72578    -324.6677    5322.5001    3552.0016    8874.5017    8605.7909   -1668.3071    4137.3355    -1964.133     1789.155    2716.2346     1010.745            0    5516.1346   -4433.1614    -47.95478     38.42879     38.42879     38.42879            0            0            0   0.76210653 
    9000    56897.248    330.21362    881.48848    5314.2577    3567.2406    8881.4983    9612.9469   -1659.8493    4165.6436   -1926.0888    1821.6333    2720.2375    951.45873            0    5493.3294   -4431.8832   -47.831144    38.461872    38.461872    38.461872            0            0            0    0.7601417 
   10000    56287.322    330.42834    1048.2838    5317.7133    3481.5023    8799.2156    9659.7443   -1612.3836    4052.0531   -1992.9534    1847.2373    2676.7231    950.49529            0    5474.4556   -4432.6229   -48.349439    38.323944    38.323944    38.323944            0            0            0   0.76837853 
   11000    56230.081    335.01076    882.29271      5391.46     3489.422     8880.882    9604.4132   -1652.2207     4106.442   -1978.2172    1821.7657     2685.433    960.44047            0    5467.6392   -4432.4384   -48.398658    38.310948    38.310948    38.310948            0            0            0   0.76916073 
   12000     55480.33    330.14765    967.98209    5313.1961    3342.2958    8655.4918    9438.7091   -1699.2135    4085.9682    -2045.752    1778.0964    2658.4913    951.46004            0    5388.0477   -4432.5067   -49.052709    38.139911    38.139911    38.139911            0            0            0   0.77955503 
   13000    55871.615    331.47259   -153.58109    5334.5188    3322.8738    8657.3926    8532.2501   -1713.6406     4085.575   -2061.2635    1790.5951    2681.3379    912.20437            0    5384.1373   -4433.1979   -48.709178    38.229364    38.229364    38.229364            0            0            0   0.77409558 
   14000    55883.662     339.9447    1312.0742    5470.8638     3417.247    8888.1109     9957.459   -1698.3691    4074.7268   -2055.2114    1840.8955    2708.2872    923.27563            0    5472.4584    -4431.569   -48.698678    38.232112    38.232112    38.232112            0            0            0    0.7739287 
   15000    55912.986    334.80024    -14.73767     5388.072    3290.9615    8679.0335     8667.016   -1743.5319    4085.9853   -2088.4359     1783.725    2681.5401    914.13236            0    5379.3975   -4430.8893   -48.673137    38.238798    38.238798    38.238798            0            0            0   0.77352281 
   16000    55087.964    339.41389    538.22369    5462.3213    3342.9228    8805.2441    9237.6538   -1715.2472    4063.9613   -2084.0504    1863.2533    2644.1394    919.58053            0    5426.9732   -4432.7645   -49.402088    38.049788    38.049788    38.049788            0            0            0   0.78510743 
   17000    55501.178    331.77918   -71.248529    5339.4529    3302.1539    8641.6068    8583.9363   -1756.5281    4086.2114   -2101.0039    1815.3104    2712.6168    875.23062            0    5403.1578   -4430.6872   -49.034283    38.144688    38.144688    38.144688            0            0            0   0.77926221 
   18000    55365.363    338.61487   -653.90699    5449.4624    3395.8625    8845.3249    8317.3296   -1732.8938     4042.328   -2121.2945    1838.0687    2751.4184    927.66986            0     5517.157   -4430.7288   -49.154567    38.113548    38.113548    38.113548            0            0            0   0.78117379 
   19000    55022.893    332.46748   -678.19156      5350.53    3306.9926    8657.5226    8113.3061   -1737.8466    4001.3112   -2165.2477    1845.4389    2728.1605    898.64087            0    5472.2402   -4428.7122   -49.460512      38.0348      38.0348      38.0348            0            0            0   0.78603593 
   20000    55584.526    328.62937    313.24927    5288.7617    3247.0858    8535.8475    8789.7809    -1716.778    4041.2234   -2106.3373    1794.3161    2720.9946    838.11245            0    5353.4231   -4430.7827   -48.960756    38.163773    38.163773    38.163773            0            0            0   0.77809371 
   21000     55436.26    335.79193    404.76864    5404.0317    3292.1644     8696.196    9023.4438   -1715.5477    4012.1513   -2133.8457      1797.97    2708.8236    919.21648            0      5426.01   -4430.4493   -49.091704     38.12981     38.12981     38.12981            0            0            0   0.78017475 
   22000    55192.325    329.61569    -822.5344     5304.635    3157.1726    8461.8076    7799.7304   -1795.6055    4007.1767   -2221.2167    1789.4077    2700.4468     888.5348            0    5378.3893    -4432.788   -49.308676    38.073801    38.073801    38.073801            0            0            0    0.7836229 
   23000    55225.795    330.62598   -909.37213     5320.894    3210.5356    8531.4296    7799.0108   -1768.5502    3995.2198   -2205.5781    1813.4685    2696.0014    906.64376            0    5416.1137   -4432.2476   -49.278792    38.081495    38.081495    38.081495            0            0            0     0.783148 
   24000     55352.61    332.06731    356.86704    5344.0899    3315.3552     8659.445    8947.5299   -1745.3626    4010.4591   -2165.4341     1809.575    2762.1486    909.06565            0    5480.7893   -4430.5306   -49.165893    38.110622    38.110622    38.110622            0            0            0   0.78135377 
   25000    55047.047     335.1391    628.47072    5393.5254     3242.824    8636.3495    9140.8887   -1742.5844    3992.9088   -2180.7871    1809.4803    2737.7865    876.34433            0    5423.6111   -4431.1114   -49.438809    38.040365    38.040365    38.040365            0            0            0   0.78569102 
   26000    55563.707    332.65546    1090.4375    5353.5551    3342.9505    8696.5056    9580.1303   -1716.1279    4063.3418   -2083.9453    1833.9798    2727.2205    865.69542            0    5426.8957   -4431.1591   -48.979102    38.159007    38.159007    38.159007            0            0            0   0.77838526 
   27000    55081.829    337.21663    30.599716    5426.9599    3257.6824    8684.6424    8709.2235   -1732.5226    4010.4734   -2155.0804    1808.6505    2739.0295    865.08291            0    5412.7629   -4433.0312    -49.40759    38.048375    38.048375    38.048375            0            0            0   0.78519488 
   28000    55128.167    331.59173   -129.39542    5336.4361    3288.6456    8625.0817    8521.0494    -1720.679    4048.9389   -2105.2524    1791.1394    2736.6159    866.14268            0     5393.898   -4433.5123   -49.366061    38.059042    38.059042    38.059042            0            0            0   0.78453488 
   29000    55316.563    328.77495   -208.21836    5291.1046    3188.9137    8480.0183    8312.0412   -1717.3907    3990.3425   -2158.2967    1821.4833     2657.162    868.56513            0    5347.2104   -4431.2485   -49.197931    38.102347    38.102347    38.102347            0            0            0   0.78186293 
   30000    55030.658    334.96216    1421.9956    5390.6779    3277.5612    8668.2391     9809.484   -1714.2317    4028.2549   -2117.2902    1802.2024    2714.8718    877.77709            0    5394.8514   -4431.3134   -49.453533     38.03659     38.03659     38.03659            0            0            0     0.785925 
   31000     55215.14    327.98854    602.38775    5278.4487    3269.6173     8548.066    9033.1424   -1726.5828    4052.2733   -2106.2991     1846.213    2653.3981    876.30528            0    5375.9163   -4431.9896   -49.288301    38.079046    38.079046    38.079046            0            0            0   0.78329911 
   32000    55980.965    331.99074    113.70629    5342.8576    3357.6529    8700.5105    8793.3431   -1735.8466    4085.9755   -2082.1518    1851.6306    2688.8776    899.29646            0    5439.8046   -4432.2807   -48.614033    38.254288    38.254288    38.254288            0            0            0   0.77258351 
   33000    55361.487    334.62132    663.47462    5385.1925    3270.8402    8656.0327    9191.7158   -1722.6756    4060.6314   -2092.6633    1831.1573      2704.31    828.03622            0    5363.5035   -4430.6191   -49.158009    38.112659    38.112659    38.112659            0            0            0   0.78122848 
   34000    55064.525     328.8761   -578.63635    5292.7324    3280.4418    8573.1742    8108.4947    -1779.246    4081.2434   -2131.8022    1844.0638    2704.0322    864.14805            0    5412.2441   -4433.7996   -49.423117    38.044391    38.044391    38.044391            0            0            0   0.78544162 
   35000    55252.464    334.95009    1267.4818    5390.4835    3200.2283    8590.7118    9612.0493   -1763.2142    4070.9939   -2124.8627    1833.6199    2651.6758    839.79525            0     5325.091   -4432.6424   -49.255006    38.087624    38.087624    38.087624            0            0            0   0.78276998 
   36000    55486.326    330.21254    965.12885    5314.2404    3357.8232    8672.0636    9453.0566   -1725.4384    4047.8757    -2110.137    1837.8999    2757.6439    872.41646            0    5467.9602   -4432.5742   -49.047408    38.141285    38.141285    38.141285            0            0            0   0.77947078 
   37000    55611.914    335.26217   -357.51423     5395.506    3382.3748    8777.8808    8487.9215    -1714.145    4057.8624   -2090.2311    1830.5224    2751.9525    890.13093            0    5472.6059   -4433.9485   -48.936644     38.17004     38.17004     38.17004            0            0            0   0.77771051 
   38000    55497.633    333.39815    915.85837    5365.5075    3271.0139    8636.5214    9377.7952   -1735.0598    4046.9971   -2122.0071    1840.6922    2678.2382    874.09059            0     5393.021   -4433.9443   -49.037415    38.143876    38.143876    38.143876            0            0            0   0.77931198 
   39000    56209.923     335.3209    21.086037    5396.4511    3276.3726    8672.8237    8690.1093   -1728.4855    4036.3484   -2125.3348    1848.9863    2707.6933    845.02778            0    5401.7074   -4433.1977   -48.416015     38.30637     38.30637     38.30637            0            0            0   0.76943657 
   40000    55684.141     328.3376    588.84761    5284.0662    3316.0401    8600.1063    9078.3071   -1702.7095    4010.7597   -2124.4106     1821.593    2744.2152    874.64255            0    5440.4507   -4432.4607    -48.87317    38.186557    38.186557    38.186557            0            0            0   0.77670176 
   41000     55451.05     327.9461    1118.0481    5277.7655     3324.842    8602.6076    9506.7693   -1715.2698    4040.8549   -2106.4117    1805.6136    2771.8816     853.7585            0    5431.2537   -4431.9968    -49.07861    38.133201    38.133201    38.133201            0            0            0   0.77996666 
   42000    55493.663    336.43608   -1192.1685    5414.3982    3269.8098     8684.208    7719.3644   -1743.4471    4007.9652   -2167.7243    1876.5686    2681.8983    879.06709            0     5437.534   -4432.2424   -49.040923    38.142966    38.142966    38.142966            0            0            0   0.77936774 
   43000    55587.228    332.76857    -650.4155    5355.3755    3231.6223    8586.9978    8059.7172   -1730.5661    4023.9167   -2139.6247    1849.7878    2655.2978     866.1615            0     5371.247   -4432.9753   -48.958377    38.164391    38.164391    38.164391            0            0            0   0.77805589 
   44000    55792.714    333.81989    140.35819    5372.2948    3179.8631    8552.1578    8666.3644   -1739.8141    4020.0384    -2153.774    1823.3275    2667.8318    842.47784            0    5333.6371   -4433.9983   -48.778062     38.21136     38.21136     38.21136            0            0            0    0.7751903 
   45000    55822.458    338.55425    719.78711    5448.4868    3141.2578    8589.7446    9175.7329   -1717.4797    3979.3945   -2172.9212    1818.4108    2646.6746    849.09355            0    5314.1789   -4434.8359   -48.752071    38.218149    38.218149    38.218149            0            0            0   0.77477724 
   46000     55746.74    330.60638   -31.487991    5320.5785    3238.3957    8558.9743    8533.3742   -1720.8341    3959.0799   -2195.2164    1850.1839    2723.1883    860.23989            0    5433.6121   -4433.4622   -48.818289    38.200862    38.200862    38.200862            0            0            0   0.77582958 
   47000    56659.989    331.36472   -1444.3568    5332.7829    3239.8796    8572.6625    7379.1503   -1673.0867    3965.1604   -2142.0944    1847.9762    2700.6257     833.3721            0     5381.974   -4434.1681   -48.031433    38.408336    38.408336    38.408336            0            0            0   0.76332472 
   48000    55569.548    334.61953   -1759.9805    5385.1638    3280.2274    8665.3913    7239.0593   -1753.0303    3990.0927   -2196.3592    1847.4362    2784.9447    844.20578            0    5476.5866   -4433.4215   -48.973954    38.160345    38.160345    38.160345            0            0            0   0.77830345 
   49000    55079.223    335.53014     784.9988    5399.8185    3135.2472    8535.0657    9165.6348   -1727.3653    3984.7271   -2174.7044    1796.3247    2657.8769    855.74998            0    5309.9515   -4432.0662   -49.409928    38.047775    38.047775    38.047775            0            0            0   0.78523203 
   50000    55986.297    328.72656   -996.76038    5290.3259    3196.5259    8486.8518    7672.9942   -1704.3198    3994.0669   -2141.9431     1821.475    2673.0119    843.98209            0     5338.469   -4431.6902   -48.609403    38.255503    38.255503    38.255503            0            0            0   0.77250993 
   50518      55923.4    334.83017   -935.54676    5388.5537    3188.4412    8576.9949    7813.9766   -1725.0127    4030.8699   -2126.0512    1799.2312    2663.1875    852.07374            0    5314.4924   -4431.9084   -48.664074    38.241171    38.241171    38.241171            0            0            0   0.77337878 
Loop time of 245.035 on 48 procs for 50000 steps with 5400 atoms

Performance: 17.630 ns/day, 1.361 hours/ns, 204.052 timesteps/s
66.5% CPU use with 48 MPI tasks x 1 OpenMP threads

MPI task timing breakdown:
Section |  min time  |  avg time  |  max time  |%varavg| %total
---------------------------------------------------------------
Pair    | 88.042     | 102.38     | 112.97     |  59.7 | 41.78
Bond    | 4.0773     | 4.6194     | 5.2524     |  10.2 |  1.89
Kspace  | 28.837     | 39.478     | 52.606     |  99.3 | 16.11
Neigh   | 18.614     | 19.581     | 20.363     |  13.6 |  7.99
Comm    | 44.588     | 50.882     | 59.938     |  48.5 | 20.77
Output  | 0.055365   | 0.056282   | 0.065651   |   0.6 |  0.02
Modify  | 16.573     | 21.986     | 25.67      |  45.2 |  8.97
Other   |            | 6.052      |            |       |  2.47

Nlocal:    112.5 ave 128 max 85 min
Histogram: 1 1 0 4 4 10 11 6 6 5
Nghost:    6329.81 ave 6393 max 6268 min
Histogram: 2 2 5 4 11 8 10 2 3 1
Neighs:    76724.2 ave 94840 max 55741 min
Histogram: 1 1 2 5 14 8 9 3 2 3

Total # of neighbors = 3682764
Ave neighs/atom = 681.993
Ave special neighs/atom = 10.4444
Neighbor list builds = 5918
Dangerous builds = 0

unfix npt_density

fix reshape_box all deform 1 x final 0.0 37.4456 y final 0.0 37.4456 z final 0.0 37.4456 units box

run 100000
Ewald initialization ...
  using 12-bit tables for long-range coulomb (src/kspace.cpp:332)
  G vector (1/distance) = 0.141919
  estimated absolute RMS force accuracy = 0.0340388
  estimated relative force accuracy = 0.000102507
  KSpace vectors: actual max1d max3d = 128 4 364
                  kxmax kymax kzmax  = 4 4 4
Per MPI rank memory allocation (min/avg/max) = 22.51 | 22.56 | 22.89 Mbytes
Step Volume Temp Press KinEng PotEng TotEng Enthalpy E_vdwl E_coul E_pair E_bond E_angle E_dihed E_impro E_mol E_long E_tail Lx Ly Lz Xy Xz Yz Density 
   50518      55923.4    334.83017   -935.36803    5388.5537    3188.4553    8577.0091    7814.1365   -1725.0127    4069.0713   -2126.0371    1799.2312    2663.1875    852.07374            0    5314.4924   -4470.0957   -48.664074    38.241171    38.241171    38.241171            0            0            0   0.77337878 
   51000    55906.578    334.83017   -715.50308    5388.5537    3187.1837    8575.7374     7992.359    -1723.728    4069.0416    -2124.784    1796.7064    2663.1875    852.07374            0    5311.9676   -4470.0976   -48.678717    38.237337    38.237337    38.237337            0            0            0   0.77361148 
   52000    55871.689    334.83017   -258.49491    5388.5537    3184.5958    8573.1496    8362.5198   -1721.0464    4068.8651    -2122.283    1791.6175    2663.1875    852.07374            0    5306.8788   -4470.1017   -48.709114    38.229381    38.229381    38.229381            0            0            0   0.77409455 
   53000    55836.815    334.83017    199.23624    5388.5537    3182.2972    8570.8509    8733.0935   -1718.3484    4068.7449   -2119.7092    1786.7452    2663.1875    852.07374            0    5302.0064   -4470.1058   -48.739536    38.221425    38.221425    38.221425            0            0            0   0.77457803 
   54000    55801.955    334.83017    658.15981    5388.5537    3180.4055    8568.9593    9104.5791   -1715.6334    4068.7983   -2116.9449    1782.0892    2663.1875    852.07374            0    5297.3505   -4470.1098   -48.769984     38.21347     38.21347     38.21347            0            0            0   0.77506191 
   55000     55767.11    334.83017    1116.8079    5388.5537    3178.5518    8567.1055    9475.4121   -1712.9023     4068.657   -2114.3592    1777.6497    2663.1875    852.07374            0     5292.911   -4470.1139   -48.800457    38.205514    38.205514    38.205514            0            0            0    0.7755462 
   56000    55732.279    334.83017    1576.2955    5388.5537    3177.0149    8565.5686    9846.7787   -1710.1563    4068.6013   -2111.6729    1773.4266    2663.1875    852.07374            0    5288.6879   -4470.1179   -48.830956    38.197558    38.197558    38.197558            0            0            0   0.77603089 
   57000    55697.463    334.83017    2035.8654    5388.5537    3175.6061    8564.1598    10217.874    -1707.393    4068.4399   -2109.0751    1769.4199    2663.1875    852.07374            0    5284.6812    -4470.122    -48.86148    38.189603    38.189603    38.189603            0            0            0   0.77651598 
   58000    55662.662    334.83017    2494.5229    5388.5537     3174.076    8562.6297    10587.641   -1704.6138    4067.9249    -2106.815    1765.6297    2663.1875    852.07374            0     5280.891    -4470.126   -48.892029    38.181647    38.181647    38.181647            0            0            0   0.77700148 
   59000    55627.874    334.83017     2954.615    5388.5537    3173.0124    8561.5661    10958.573   -1701.8165    4067.6419   -2104.3048    1762.0559    2663.1875    852.07374            0    5277.3172   -4470.1301   -48.922604    38.173691    38.173691    38.173691            0            0            0   0.77748738 
   60000    55593.102    334.83017    3415.4312    5388.5537    3172.2358    8560.7895    11329.913   -1699.0049    4067.4151    -2101.724    1758.6985    2663.1875    852.07374            0    5273.9598   -4470.1342   -48.953204    38.165735    38.165735    38.165735            0            0            0   0.77797369 
   61000    55558.344    334.83017     3877.904    5388.5537    3171.9808    8560.5345    11702.651   -1696.1747    4067.4749    -2098.838    1755.5576    2663.1875    852.07374            0    5270.8188   -4470.1382    -48.98383     38.15778     38.15778     38.15778            0            0            0    0.7784604 
   62000      55523.6    334.83017    4339.7685    5388.5537    3171.6796    8560.2333    12074.381   -1693.3302    4067.2577   -2096.2148    1752.6331    2663.1875    852.07374            0    5267.8943   -4470.1423   -49.014482    38.149824    38.149824    38.149824            0            0            0   0.77894752 
   63000    55488.871    334.83017    4803.2134    5388.5537    3171.8794    8560.4331    12447.425   -1690.4687    4067.3082   -2093.3068     1749.925    2663.1875    852.07374            0    5265.1862   -4470.1463   -49.045159    38.141868    38.141868    38.141868            0            0            0   0.77943504 
   64000    55454.156    334.83017    5265.3562    5388.5537    3171.8614    8560.4151     12818.73   -1687.5885    4066.9056   -2090.8332    1747.4333    2663.1875    852.07374            0    5262.6946   -4470.1504   -49.075861    38.133913    38.133913    38.133913            0            0            0   0.77992298 
   65000    55419.456    334.83017    5729.1653    5388.5537     3172.365    8560.9187    13191.436    -1684.692    4066.7921   -2088.0544    1745.1581    2663.1875    852.07374            0    5260.4194   -4470.1544    -49.10659    38.125957    38.125957    38.125957            0            0            0   0.78041132 
   66000     55384.77    334.83017    6193.5753    5388.5537    3173.1237    8561.6774    13564.414   -1681.7813    4066.7029   -2085.2369    1743.0993    2663.1875    852.07374            0    5258.3606   -4470.1585   -49.137344    38.118001    38.118001    38.118001            0            0            0   0.78090006 
   67000    55350.099    334.83017    6658.6775    5388.5537    3174.1614    8562.7151    13937.762    -1678.852    4066.6578   -2082.3568    1741.2569    2663.1875    852.07374            0    5256.5182   -4470.1626   -49.168123    38.110045    38.110045    38.110045            0            0            0   0.78138922 
   68000    55315.442    334.83017    7123.5886    5388.5537    3175.2573    8563.8111    14310.545   -1675.9061    4066.4378   -2079.6349     1739.631    2663.1875    852.07374            0    5254.8923   -4470.1666   -49.198929     38.10209     38.10209     38.10209            0            0            0   0.78187878 
   69000    55280.799    334.83017    7589.2256    5388.5537    3176.6396    8565.1933    14683.731   -1672.9433    4066.2707   -2076.8432    1738.2215    2663.1875    852.07374            0    5253.4828   -4470.1707    -49.22976    38.094134    38.094134    38.094134            0            0            0   0.78236876 
   70000    55246.171    334.83017    8056.0997    5388.5537    3178.4352     8566.989    15057.859   -1669.9629    4066.2832   -2073.8544    1737.0284    2663.1875    852.07374            0    5252.2897   -4470.1747   -49.260616    38.086178    38.086178    38.086178            0            0            0   0.78285914 
   71000    55211.558    334.83017    8522.7462    5388.5537    3180.2798    8568.8335    15431.382   -1666.9665    4066.1121   -2071.0332    1736.0518    2663.1875    852.07374            0     5251.313   -4470.1788   -49.291499    38.078223    38.078223    38.078223            0            0            0   0.78334993 
   72000    55176.959    334.83017    8989.2063    5388.5537    3182.1835    8570.7373    15804.346   -1663.9532    4065.7668   -2068.3693    1735.2915    2663.1875    852.07374            0    5250.5528   -4470.1828   -49.322408    38.070267    38.070267    38.070267            0            0            0   0.78384114 
   73000    55142.375    334.83017    9455.9578    5388.5537     3184.266    8572.8197    16177.253   -1660.9205    4065.3643    -2065.743    1734.7478    2663.1875    852.07374            0     5250.009   -4470.1869   -49.353342    38.062311    38.062311    38.062311            0            0            0   0.78433275 
   74000    55107.805    334.83017    9924.8615    5388.5537    3186.9869    8575.5406    16552.061   -1657.8731    4065.3692   -2062.6948    1734.4204    2663.1875    852.07374            0    5249.6817   -4470.1909   -49.384302    38.054355    38.054355    38.054355            0            0            0   0.78482478 
   75000    55073.249    334.83017    10393.399    5388.5537    3189.7217    8578.2754    16926.117   -1654.8089    4065.1549    -2059.849    1734.3095    2663.1875    852.07374            0    5249.5707    -4470.195   -49.415288      38.0464      38.0464      38.0464            0            0            0   0.78531721 
   76000    55038.708    334.83017    10862.854    5388.5537    3192.7903     8581.344    17300.774   -1651.7244    4065.0375   -2056.8859     1734.415    2663.1875    852.07374            0    5249.6762    -4470.199     -49.4463    38.038444    38.038444    38.038444            0            0            0   0.78581006 
   77000    55004.181    334.83017    11333.075    5388.5537    3196.1526    8584.7064    17675.867   -1648.6242    4064.9817   -2053.8455    1734.7369    2663.1875    852.07374            0    5249.9982   -4470.2031   -49.477338    38.030488    38.030488    38.030488            0            0            0   0.78630332 
   78000    54969.669    334.83017    11803.996    5388.5537    3199.7933     8588.347     18051.33    -1645.506    4064.9699   -2050.7432    1735.2752    2663.1875    852.07374            0    5250.5365   -4470.2071   -49.508402    38.022533    38.022533    38.022533            0            0            0     0.786797 
   79000    54935.171    334.83017    12275.208    5388.5537    3203.6113     8592.165    18426.732   -1642.3689       4064.9     -2047.68      1736.03    2663.1875    852.07374            0    5251.2913   -4470.2112   -49.539492    38.014577    38.014577    38.014577            0            0            0   0.78729108 
   80000    54900.688    334.83017    12747.246    5388.5537    3207.7375    8596.2912    18802.631   -1639.2152    4064.9054    -2044.525    1737.0012    2663.1875    852.07374            0    5252.2625   -4470.2152   -49.570608    38.006621    38.006621    38.006621            0            0            0   0.78778558 
   81000    54866.219    334.83017    13220.006    5388.5537    3212.1475    8600.7012    19178.921   -1636.0417    4064.9583   -2041.3027    1738.1889    2663.1875    852.07374            0    5253.4502   -4470.2193    -49.60175    37.998665    37.998665    37.998665            0            0            0    0.7882805 
   82000    54831.764    334.83017    13692.386    5388.5537    3216.5677    8605.1214    19554.443   -1632.8509    4064.7877   -2038.2865     1739.593    2663.1875    852.07374            0    5254.8542   -4470.2233   -49.632918     37.99071     37.99071     37.99071            0            0            0   0.78877583 
   83000    54797.324    334.83017     14166.09    5388.5537    3221.4186    8609.9723    19930.984   -1629.6432    4064.8144   -2035.0562    1741.2135    2663.1875    852.07374            0    5256.4747   -4470.2274   -49.664112    37.982754    37.982754    37.982754            0            0            0   0.78927158 
   84000    54762.898    334.83017    14639.693    5388.5537    3226.3488    8614.9026     20307.05   -1626.4184     4064.687   -2031.9628    1743.0504    2663.1875    852.07374            0    5258.3117   -4470.2314   -49.695333    37.974798    37.974798    37.974798            0            0            0   0.78976774 
   85000    54728.487    334.83017    15113.389    5388.5537     3231.406    8619.9597    20682.845   -1623.1762    4064.4526   -2028.9591    1745.1038    2663.1875    852.07374            0     5260.365   -4470.2355   -49.726579    37.966843    37.966843    37.966843            0            0            0   0.79026431 
   86000     54694.09    334.83017    15589.047    5388.5537    3237.0502    8625.6039    21060.319   -1619.9152    4064.5701   -2025.5846    1747.3736    2663.1875    852.07374            0    5262.6348   -4470.2395   -49.757852    37.958887    37.958887    37.958887            0            0            0   0.79076131 
   87000    54659.708    334.83017    16063.627    5388.5537    3242.5331    8631.0869      21436.3    -1616.637    4064.2926   -2022.5879    1749.8598    2663.1875    852.07374            0    5265.1211   -4470.2436   -49.789151    37.950931    37.950931    37.950931            0            0            0   0.79125872 
   88000     54625.34    334.83017    16538.275    5388.5537    3248.1378    8636.6915    21811.984   -1613.3389    4063.9007   -2019.6859    1752.5624    2663.1875    852.07374            0    5267.8237   -4470.2476   -49.820477    37.942975    37.942975    37.942975            0            0            0   0.79175654 
   89000    54590.986    334.83017    17014.965    5388.5537    3254.3476    8642.9013    22189.426   -1610.0232    4063.8797   -2016.3952    1755.4815    2663.1875    852.07374            0    5270.7428   -4470.2516   -49.851828     37.93502     37.93502     37.93502            0            0            0   0.79225479 
   90000    54556.647    334.83017    17491.567    5388.5537    3260.6389    8649.1926    22566.406   -1606.6906    4063.7069   -2013.2394     1758.617    2663.1875    852.07374            0    5273.8783   -4470.2557   -49.883206    37.927064    37.927064    37.927064            0            0            0   0.79275345 
   91000    54522.322    334.83017    17968.511    5388.5537    3267.1189    8655.6726    22943.372   -1603.3372    4063.4856   -2010.1113     1761.969    2663.1875    852.07374            0    5277.2302   -4470.2597    -49.91461    37.919108    37.919108    37.919108            0            0            0   0.79325253 
   92000    54488.012    334.83017     18446.93    5388.5537     3274.064    8662.6177    23321.503   -1599.9663    4063.4954   -2006.7347    1765.5373    2663.1875    852.07374            0    5280.7986   -4470.2638   -49.946041    37.911153    37.911153    37.911153            0            0            0   0.79375203 
   93000    54453.716    334.83017    18925.512    5388.5537    3281.1519    8669.7056    23699.431   -1596.5778    4063.4141   -2003.4315    1769.3222    2663.1875    852.07374            0    5284.5834   -4470.2678   -49.977498    37.903197    37.903197    37.903197            0            0            0   0.79425195 
   94000    54419.434    334.83017    19404.019    5388.5537    3288.3246    8676.8784    24076.909   -1593.1705    4063.1823     -2000.26    1773.3234    2663.1875    852.07374            0    5288.5846   -4470.2719   -50.008981    37.895241    37.895241    37.895241            0            0            0   0.79475229 
   95000    54385.167    334.83017    19883.943    5388.5537    3295.9488    8684.5026    24455.489   -1589.7427    4063.1651   -1996.8535     1777.541    2663.1875    852.07374            0    5292.8023   -4470.2759   -50.040491    37.887285    37.887285    37.887285            0            0            0   0.79525305 
   96000    54350.914    334.83017    20364.521    5388.5537    3303.8352    8692.3889    24834.374   -1586.2969    4063.1757   -1993.4012    1781.9751    2663.1875    852.07374            0    5297.2364   -4470.2799   -50.072027     37.87933     37.87933     37.87933            0            0            0   0.79575424 
   97000    54316.676    334.83017    20844.397    5388.5537    3311.6536    8700.2073    25212.159   -1582.8319    4062.8825   -1990.2334    1786.6256    2663.1875    852.07374            0    5301.8869    -4470.284    -50.10359    37.871374    37.871374    37.871374            0            0            0   0.79625584 
   98000    54282.452    334.83017    21326.083    5388.5537    3320.0174    8708.5712    25591.448   -1579.3465    4062.8981   -1986.7364    1791.4926    2663.1875    852.07374            0    5306.7539    -4470.288   -50.135179    37.863418    37.863418    37.863418            0            0            0   0.79675786 
   99000    54248.242    334.83017    21808.939    5388.5537    3328.7691    8717.3228    25971.573   -1575.8439    4063.0678   -1983.0682     1796.576    2663.1875    852.07374            0    5311.8372   -4470.2921   -50.166795    37.855463    37.855463    37.855463            0            0            0   0.79726031 
  100000    54214.047    334.83017    22291.363    5388.5537    3337.5174    8726.0711    26350.877    -1572.324    4063.0004   -1979.6197    1801.8758    2663.1875    852.07374            0     5317.137   -4470.2961   -50.198438    37.847507    37.847507    37.847507            0            0            0   0.79776318 
  101000    54179.866    334.83017    22775.245    5388.5537     3346.723    8735.2767    26731.314   -1568.7854    4063.1552   -1975.9303     1807.392    2663.1875    852.07374            0    5322.6533   -4470.3002   -50.230107    37.839551    37.839551    37.839551            0            0            0   0.79826647 
  102000    54145.699    334.83017    23258.034    5388.5537    3355.7659    8744.3196    27110.247   -1565.2265    4062.9106   -1972.6201    1813.1247    2663.1875    852.07374            0     5328.386   -4470.3042   -50.261803    37.831595    37.831595    37.831595            0            0            0   0.79877018 
  103000    54111.547    334.83017    23742.789    5388.5537    3365.3899    8753.9436    27490.837   -1561.6481    4063.0112   -1968.9451    1819.0738    2663.1875    852.07374            0     5334.335   -4470.3082   -50.293525     37.82364     37.82364     37.82364            0            0            0   0.79927432 
  104000    54077.409    334.83017    24227.073    5388.5537    3375.0018    8763.5555    27870.565   -1558.0489    4062.8624   -1965.4988    1825.2393    2663.1875    852.07374            0    5340.5006   -4470.3123   -50.325274    37.815684    37.815684    37.815684            0            0            0   0.79977889 
  105000    54043.286    334.83017    24712.497    5388.5537    3384.9925    8773.5462    28251.093   -1554.4324    4062.8587   -1961.8901    1831.6213    2663.1875    852.07374            0    5346.8825   -4470.3163    -50.35705    37.807728    37.807728    37.807728            0            0            0   0.80028387 
  106000    54009.177    334.83017    25199.319    5388.5537    3395.4253     8783.979    28632.687    -1550.796    4063.0608   -1958.0556    1838.2196    2663.1875    852.07374            0    5353.4809   -4470.3203   -50.388853    37.799773    37.799773    37.799773            0            0            0   0.80078929 
  107000    53975.082    334.83017    25685.603    5388.5537    3405.8304    8794.3841    29013.352   -1547.1378    4062.9969   -1954.4653    1845.0345    2663.1875    852.07374            0    5360.2957   -4470.3244   -50.420682    37.791817    37.791817    37.791817            0            0            0   0.80129513 
  108000    53941.002    334.83017     26172.23    5388.5537    3416.4194    8804.9731     29393.99   -1543.4622    4062.8831   -1950.9076    1852.0657    2663.1875    852.07374            0     5367.327   -4470.3284   -50.452538    37.783861    37.783861    37.783861            0            0            0   0.80180139 
  109000    53906.936    334.83017    26658.994    5388.5537    3427.1436    8815.6973    29774.395   -1539.7675    4062.6689    -1947.431    1859.3134    2663.1875    852.07374            0    5374.5746   -4470.3325   -50.484421    37.775905    37.775905    37.775905            0            0            0   0.80230808 
  110000    53872.884    334.83017    27146.554    5388.5537    3438.1633     8826.717    30155.242   -1536.0509     4062.512   -1943.8754    1866.7775    2663.1875    852.07374            0    5382.0387   -4470.3365   -50.516331     37.76795     37.76795     37.76795            0            0            0    0.8028152 
  111000    53838.847    334.83017      27635.7    5388.5537    3449.6685    8838.2223    30537.341   -1532.3155    4062.6053   -1940.0507     1874.458    2663.1875    852.07374            0    5389.7193   -4470.3405   -50.548268    37.759994    37.759994    37.759994            0            0            0   0.80332275 
  112000    53804.824    334.83017     28125.59    5388.5537    3461.4555    8850.0092    30919.826   -1528.5593    4062.7431   -1936.1608     1882.355    2663.1875    852.07374            0    5397.6162   -4470.3446   -50.580232    37.752038    37.752038    37.752038            0            0            0   0.80383072 
  113000    53770.815    334.83017    28615.471    5388.5537      3473.34    8861.8937    31301.923   -1524.7872    4062.7461   -1932.3896    1890.4684    2663.1875    852.07374            0    5405.7296   -4470.3486   -50.612223    37.744083    37.744083    37.744083            0            0            0   0.80433913 
  114000    53736.821    334.83017    29105.649    5388.5537    3485.3987    8873.9524    31683.945   -1520.9921     4062.684   -1928.6608    1898.7982    2663.1875    852.07374            0    5414.0595   -4470.3526    -50.64424    37.736127    37.736127    37.736127            0            0            0   0.80484796 
  115000    53702.841    334.83017    29595.161    5388.5537    3497.3981    8885.9518    32064.907   -1517.1766    4062.3257   -1925.2076    1907.3444    2663.1875    852.07374            0    5422.6057   -4470.3567   -50.676285    37.728171    37.728171    37.728171            0            0            0   0.80535722 
  116000    53668.875    334.83017    30086.875    5388.5537    3510.0302    8898.5839    32447.746   -1513.3408    4062.3633   -1921.3382    1916.1071    2663.1875    852.07374            0    5431.3684   -4470.3607   -50.708357    37.720215    37.720215    37.720215            0            0            0   0.80586691 
  117000    53634.924    334.83017     30578.85    5388.5537    3522.8267    8911.3804    32830.473   -1509.4837    4062.3277   -1917.5208    1925.0862    2663.1875    852.07374            0    5440.3475   -4470.3647   -50.740456     37.71226     37.71226     37.71226            0            0            0   0.80637703 
  118000    53600.987    334.83017    31071.983    5388.5537    3536.0027    8924.5564    33214.004   -1505.6078    4062.4362   -1913.5404    1934.2818    2663.1875    852.07374            0     5449.543   -4470.3688   -50.772582    37.704304    37.704304    37.704304            0            0            0   0.80688758 
  119000    53567.064    334.83017    31563.925    5388.5537    3548.9928    8937.5465    33595.938   -1501.7112    4062.1217   -1909.9622    1943.6937    2663.1875    852.07374            0     5458.955   -4470.3728   -50.804735    37.696348    37.696348    37.696348            0            0            0   0.80739856 
  120000    53533.155    334.83017    32056.617    5388.5537    3562.2641    8950.8178    33978.257   -1497.7941    4061.8517   -1906.3193    1953.3221    2663.1875    852.07374            0    5468.5834   -4470.3768   -50.836915    37.688393    37.688393    37.688393            0            0            0   0.80790998 
  121000    53499.261    334.83017    32550.643    5388.5537    3575.9573    8964.5111    34361.559   -1493.8561     4061.766   -1902.4709     1963.167    2663.1875    852.07374            0    5478.4282   -4470.3809   -50.869122    37.680437    37.680437    37.680437            0            0            0   0.80842182 
  122000    53465.382    334.83017    33045.968    5388.5537    3590.0642    8978.6179    34745.806    -1489.896    4061.8556   -1898.4253    1973.2282    2663.1875    852.07374            0    5488.4895   -4470.3849   -50.901357    37.672481    37.672481    37.672481            0            0            0    0.8089341 
  123000    53431.516    334.83017    33541.843    5388.5537    3604.4022    8992.9559    35130.231   -1485.9184    4061.9423    -1894.365    1983.5059    2663.1875    852.07374            0    5498.7672   -4470.3889   -50.933619    37.664525    37.664525    37.664525            0            0            0   0.80944681 
  124000    53397.665    334.83017    34037.915    5388.5537    3618.8878    9007.4415    35514.473   -1481.9197    4061.9391   -1890.3735         1994    2663.1875    852.07374            0    5509.2613    -4470.393   -50.965908     37.65657     37.65657     37.65657            0            0            0   0.80995996 
  125000    53363.828    334.83017    34535.077    5388.5537    3633.7352    9022.2889    35899.444   -1477.8997    4062.0601   -1886.2366    2004.7106    2663.1875    852.07374            0    5519.9718    -4470.397   -50.998224    37.648614    37.648614    37.648614            0            0            0   0.81047353 
  126000    53330.005    334.83017     35032.51    5388.5537    3648.7477    9037.3014    36284.306   -1473.8581     4062.108   -1882.1511    2015.6375    2663.1875    852.07374            0    5530.8988    -4470.401   -51.030568    37.640658    37.640658    37.640658            0            0            0   0.81098755 
  127000    53296.197    334.83017    35529.645    5388.5537    3663.7884    9052.3421    36668.483   -1469.7971    4061.9484   -1878.2538    2026.7809    2663.1875    852.07374            0    5542.0422    -4470.405   -51.062939    37.632703    37.632703    37.632703            0            0            0     0.811502 
  128000    53262.403    334.83017    36028.324    5388.5537    3679.2989    9067.8526    37053.844   -1465.7137    4062.0196   -1874.1032    2038.1408    2663.1875    852.07374            0     5553.402   -4470.4091   -51.095337    37.624747    37.624747    37.624747            0            0            0   0.81201688 
  129000    53228.623    334.83017    36527.799    5388.5537     3695.099    9083.6527    37439.631    -1461.612    4062.1457   -1869.8793     2049.717    2663.1875    852.07374            0    5564.9783   -4470.4131   -51.127763    37.616791    37.616791    37.616791            0            0            0    0.8125322 
  130000    53194.858    334.83017    37027.146    5388.5537    3710.9687    9099.5224    37824.903   -1457.4866    4062.1014   -1865.8023    2061.5097    2663.1875    852.07374            0     5576.771   -4470.4171   -51.160217    37.608835    37.608835    37.608835            0            0            0   0.81304795 
  131000    53161.107    334.83017    37526.148    5388.5537    3726.8558    9115.4095     38209.44   -1453.3386    4061.8354   -1861.9244    2073.5189    2663.1875    852.07374            0    5588.7801   -4470.4211   -51.192697     37.60088     37.60088     37.60088            0            0            0   0.81356414 
  132000     53127.37    334.83017     38025.66    5388.5537    3742.9644    9131.5181    38594.111   -1449.1697    4061.5535   -1858.0413    2085.7444    2663.1875    852.07374            0    5601.0057   -4470.4252   -51.225206    37.592924    37.592924    37.592924            0            0            0   0.81408077 
  133000    53093.647    334.83017     38526.23    5388.5537    3759.4251    9147.9788     38979.47   -1444.9786    4061.3853   -1854.0226    2098.1864    2663.1875    852.07374            0    5613.4477   -4470.4292   -51.257742    37.584968    37.584968    37.584968            0            0            0   0.81459784 
  134000    53059.939    334.83017    39028.162    5388.5537    3776.3095    9164.8632    39365.822   -1440.7676    4061.4043   -1849.7966    2110.8448    2663.1875    852.07374            0    5626.1061   -4470.4332   -51.290305    37.577012    37.577012    37.577012            0            0            0   0.81511534 
  135000    53026.245    334.83017    39530.966    5388.5537    3793.5012     9182.055    39752.671   -1436.5348    4061.4924   -1845.4797    2123.7196    2663.1875    852.07374            0    5638.9809   -4470.4372   -51.322896    37.569057    37.569057    37.569057            0            0            0   0.81563328 
  136000    52992.565    334.83017    40033.267    5388.5537    3810.6727    9199.2264    40138.625   -1432.2784    4061.3201   -1841.3995    2136.8109    2663.1875    852.07374            0    5652.0722   -4470.4413   -51.355515    37.561101    37.561101    37.561101            0            0            0   0.81615166 
  137000      52958.9    334.83017    40536.771    5388.5537    3828.2289    9216.7826    40525.408   -1428.0014    4061.2957    -1837.151    2150.1186    2663.1875    852.07374            0    5665.3799   -4470.4453   -51.388161    37.553145    37.553145    37.553145            0            0            0   0.81667048 
  138000    52925.249    334.83017    41040.289    5388.5537    3845.8867    9234.4404    40911.817   -1423.7037    4061.1357   -1833.0173    2163.6427    2663.1875    852.07374            0     5678.904   -4470.4493   -51.420835     37.54519     37.54519     37.54519            0            0            0   0.81718974 
  139000    52891.612    334.83017    41544.368    5388.5537    3863.7773     9252.331    41298.406   -1419.3832    4060.9693   -1828.8673    2177.3833    2663.1875    852.07374            0    5692.6446   -4470.4533   -51.453536    37.537234    37.537234    37.537234            0            0            0   0.81770944 
  140000    52857.989    334.83017    42049.092    5388.5537    3881.9202    9270.4739    41685.259   -1415.0393    4060.8152   -1824.6814    2191.3403    2663.1875    852.07374            0    5706.6016   -4470.4574   -51.486266    37.529278    37.529278    37.529278            0            0            0   0.81822958 
  141000     52824.38    334.83017    42554.997    5388.5537    3900.4416    9288.9953    42072.914   -1410.6748    4060.8028   -1820.3334    2205.5137    2663.1875    852.07374            0     5720.775   -4470.4614   -51.519023    37.521322    37.521322    37.521322            0            0            0   0.81875017 
  142000    52790.786    334.83017    43060.343    5388.5537    3918.9293     9307.483    42459.618    -1406.286    4060.5159   -1816.2356    2219.9036    2663.1875    852.07374            0    5735.1648   -4470.4654   -51.551808    37.513367    37.513367    37.513367            0            0            0   0.81927119 
  143000    52757.206    334.83017    43565.773    5388.5537    3937.5349    9326.0886    42846.018   -1401.8768      4060.11   -1812.2362    2234.5098    2663.1875    852.07374            0    5749.7711   -4470.4694   -51.584621    37.505411    37.505411    37.505411            0            0            0   0.81979266 
  144000     52723.64    334.83017    44073.748    5388.5537    3956.8423     9345.396    43234.592   -1397.4451    4060.1671   -1807.7515    2249.3325    2663.1875    852.07374            0    5764.5938   -4470.4734   -51.617461    37.497455    37.497455    37.497455            0            0            0   0.82031457 
  145000    52690.089    334.83017    44580.979    5388.5537    3976.0713     9364.625    43622.027   -1392.9899    4059.9057   -1803.5617    2264.3717    2663.1875    852.07374            0    5779.6329   -4470.4775    -51.65033      37.4895      37.4895      37.4895            0            0            0   0.82083692 
  146000    52656.552    334.83017    45089.651    5388.5537    3995.7392     9384.293     44010.52    -1388.514    4059.8462   -1799.1493    2279.6272    2663.1875    852.07374            0    5794.8885   -4470.4815   -51.683226    37.481544    37.481544    37.481544            0            0            0   0.82135971 
  147000    52623.029    334.83017    45597.987    5388.5537    4015.4263      9403.98    44398.287   -1384.0131    4059.5645   -1794.9342    2295.0992    2663.1875    852.07374            0    5810.3605   -4470.4855    -51.71615    37.473588    37.473588    37.473588            0            0            0   0.82188295 
  148000     52589.52    334.83017     46106.73    5388.5537    4035.3071    9423.8608    44786.072   -1379.4899    4059.2376   -1790.7418    2310.7877    2663.1875    852.07374            0    5826.0489   -4470.4895   -51.749103    37.465632    37.465632    37.465632            0            0            0   0.82240664 
  149000    52556.025    334.83017    46616.849    5388.5537    4055.6111    9444.1648    45174.848   -1374.9445    4059.0953   -1786.3427    2326.6925    2663.1875    852.07374            0    5841.9538   -4470.4935   -51.782083    37.457677    37.457677    37.457677            0            0            0   0.82293077 
  150000    52522.545    334.83017    47127.843    5388.5537    4076.2189    9464.7726    45564.109   -1370.3759    4059.0172   -1781.8562    2342.8138    2663.1875    852.07374            0    5858.0751   -4470.4976   -51.815091    37.449721    37.449721    37.449721            0            0            0   0.82345534 
  150518    52505.208    334.83017    47392.708    5388.5537    4086.9719    9475.5256    45765.762   -1368.0014     4058.962   -1779.5391    2351.2497    2663.1875    852.07374            0     5866.511   -4470.4996   -51.832201      37.4456      37.4456      37.4456            0            0            0   0.82372725 
Loop time of 402.004 on 48 procs for 100000 steps with 5400 atoms

Performance: 21.492 ns/day, 1.117 hours/ns, 248.754 timesteps/s
69.2% CPU use with 48 MPI tasks x 1 OpenMP threads

MPI task timing breakdown:
Section |  min time  |  avg time  |  max time  |%varavg| %total
---------------------------------------------------------------
Pair    | 148.2      | 205.69     | 243.85     | 137.7 | 51.17
Bond    | 6.071      | 8.2216     | 10.038     |  31.0 |  2.05
Kspace  | 35.038     | 76.039     | 135.17     | 231.3 | 18.92
Neigh   | 0.033097   | 0.034825   | 0.036367   |   0.6 |  0.01
Comm    | 77.99      | 90.399     | 107.58     |  78.0 | 22.49
Output  | 0.10823    | 0.11936    | 0.12832    |   1.4 |  0.03
Modify  | 0.53861    | 0.64404    | 0.93598    |  12.1 |  0.16
Other   |            | 20.85      |            |       |  5.19

Nlocal:    112.5 ave 129 max 84 min
Histogram: 1 1 0 1 6 11 11 5 10 2
Nghost:    6613.06 ave 6682 max 6543 min
Histogram: 2 2 4 8 6 8 9 5 2 2
Neighs:    81695.2 ave 94998 max 62064 min
Histogram: 1 1 0 5 8 12 7 4 5 5

Total # of neighbors = 3921369
Ave neighs/atom = 726.179
Ave special neighs/atom = 10.4444
Neighbor list builds = 10
Dangerous builds = 0
# >>>>>>>>>  Equilibration run <<<<<<<<<<<<<<<<<<<<<<<<<<<<<<<<<<

fix             NVT_equib all nvt temp ${simulationTemp} ${simulationTemp} 100
fix             NVT_equib all nvt temp 333 ${simulationTemp} 100
fix             NVT_equib all nvt temp 333 333 100

print           "Step Density Temperature Pressure KinEng PotEng TotEng" file Properties_equib_333k.txt
Step Density Temperature Pressure KinEng PotEng TotEng
fix             PRINT_equib all print ${printfreq} "$(v_step) $(v_density) $(v_temp) $(v_press) $(v_pe) $(v_ke) $(v_etotal) $(v_enthalpy)" append Properties_equib_333k.txt title ""
fix             PRINT_equib all print 1000 "$(v_step) $(v_density) $(v_temp) $(v_press) $(v_pe) $(v_ke) $(v_etotal) $(v_enthalpy)" append Properties_equib_333k.txt title ""
# The 'print' and fix print' commands as used above will create a file named 'Properties_equib.txt' which allows you to quickly make plots to test for equilibration


run             ${NVT_equib}
run             100000
Ewald initialization ...
  using 12-bit tables for long-range coulomb (src/kspace.cpp:332)
  G vector (1/distance) = 0.142485
  estimated absolute RMS force accuracy = 0.0338118
  estimated relative force accuracy = 0.000101823
  KSpace vectors: actual max1d max3d = 128 4 364
                  kxmax kymax kzmax  = 4 4 4
Per MPI rank memory allocation (min/avg/max) = 22.51 | 22.56 | 22.89 Mbytes
Step Volume Temp Press KinEng PotEng TotEng Enthalpy E_vdwl E_coul E_pair E_bond E_angle E_dihed E_impro E_mol E_long E_tail Lx Ly Lz Xy Xz Yz Density 
  150518    52505.208    334.83017    47393.496    5388.5537    4087.0673     9475.621    45766.461   -1367.9968    4076.7812     -1779.46    2351.2661    2663.1875    852.07374            0    5866.5273   -4488.2444   -51.832201      37.4456      37.4456      37.4456            0            0            0   0.82372725 
151000 0.82372724821372100834 321.84504677109998738 1503.3888434706800581 3170.6685277292599494 5179.5789708233196507 8350.2474985525805096 9501.4443518126990966
  151000    52505.208    321.84505    1503.3888     5179.579    3170.6685    8350.2475    9501.4444   -1869.3964    4094.1259   -2264.2379     1881.813    2675.1247    877.96875            0    5434.9064   -4488.9674   -51.832201      37.4456      37.4456      37.4456            0            0            0   0.82372725 
152000 0.82372724821372100834 329.47196026700999028 488.07475412589002417 3038.906472484150072 5302.3218905980102136 8341.2283630821493716 8714.9640892355491815
  152000    52505.208    329.47196    488.07475    5302.3219    3038.9065    8341.2284    8714.9641   -1887.4204    4115.9552   -2260.9777    1811.2915    2632.4134    856.17934            0    5299.8842   -4489.5125   -51.832201      37.4456      37.4456      37.4456            0            0            0   0.82372725 
153000 0.82372724821372100834 333.76169248210197793 480.07710114236101617 3147.3929309000800458 5371.3582389733001037 8518.7511698733796948 8886.3628164261499478
  153000    52505.208    333.76169     480.0771    5371.3582    3147.3929    8518.7512    8886.3628   -1852.1425    4066.7224   -2272.5229    1871.7555    2675.6489     872.5114            0    5419.9158   -4487.1028   -51.832201      37.4456      37.4456      37.4456            0            0            0   0.82372725 
154000 0.82372724821372100834 335.5339632040859783 -1143.8786324454599708 3202.734575504950044 5399.8800890197298941 8602.6146645246808475 7726.7072185556799013
  154000    52505.208    335.53396   -1143.8786    5399.8801    3202.7346    8602.6147    7726.7072   -1853.2984    4031.8883   -2309.8638    1915.1256    2710.8125    886.66029            0    5512.5984   -4488.4537   -51.832201      37.4456      37.4456      37.4456            0            0            0   0.82372725 
155000 0.82372724821372100834 339.747967659575977 1373.5766405142799158 3062.3589196764100961 5467.6977207639301923 8530.0566404403307388 9581.8517985187991144
  155000    52505.208    339.74797    1373.5766    5467.6977    3062.3589    8530.0566    9581.8518   -1891.8696    4098.0044   -2282.2028    1863.5933    2629.3912     851.5772            0    5344.5617   -4488.3376   -51.832201      37.4456      37.4456      37.4456            0            0            0   0.82372725 
156000 0.82372724821372100834 327.60428977477801027 966.36384147119099453 3100.2978493356499712 5272.264734512979885 8372.562583848630311 9112.5408125268204458
  156000    52505.208    327.60429    966.36384    5272.2647    3100.2978    8372.5626    9112.5408   -1867.7848    4079.2901   -2276.9243    1836.5785    2713.3191    827.32451            0    5377.2222   -4488.4296   -51.832201      37.4456      37.4456      37.4456            0            0            0   0.82372725 
157000 0.82372724821372100834 330.25495115661601631 99.988233894390404544 2991.3595335261697983 5314.922871060000034 8306.2824045861707418 8382.846854776269538
  157000    52505.208    330.25495    99.988234    5314.9229    2991.3595    8306.2824    8382.8469   -1875.8499    4044.0316   -2321.9278     1792.238    2701.8837    819.16557            0    5313.2873   -4490.1095   -51.832201      37.4456      37.4456      37.4456            0            0            0   0.82372725 
158000 0.82372724821372100834 337.49481024020201403 37.822297029201301655 2986.2658941327299544 5431.4367718867397343 8417.7026660194696888 8446.6645074699899851
  158000    52505.208    337.49481    37.822297    5431.4368    2986.2659    8417.7027    8446.6645   -1910.5058    4050.9456   -2347.6628    1821.1328    2683.6161    829.17983            0    5333.9287   -4488.1026   -51.832201      37.4456      37.4456      37.4456            0            0            0   0.82372725 
159000 0.82372724821372100834 333.39283663066902363 -1386.8363074911399053 2999.7208076815500135 5365.4220966261900685 8365.1429043077405368 7303.1943604533098551
  159000    52505.208    333.39284   -1386.8363    5365.4221    2999.7208    8365.1429    7303.1944   -1881.1294    4008.4871     -2362.61    1859.7258    2677.3227    825.28235            0    5362.3308   -4489.9677   -51.832201      37.4456      37.4456      37.4456            0            0            0   0.82372725 
160000 0.82372724821372100834 335.36198908184599077 1180.8968443527899126 3268.8232181550602036 5397.1124418055997012 8665.9356599606708187 9570.1892315818095085
  160000    52505.208    335.36199    1180.8968    5397.1124    3268.8232    8665.9357    9570.1892   -1880.5421    4046.3276   -2323.6428    1924.1691    2789.8652    878.43161            0     5592.466   -4489.4282   -51.832201      37.4456      37.4456      37.4456            0            0            0   0.82372725 
161000 0.82372724821372100834 327.3127715280069765 1666.3867179225599102 3050.9724645844098632 5267.5732166669404251 8318.5456812513493787 9594.5556465496702003
  161000    52505.208    327.31277    1666.3867    5267.5732    3050.9725    8318.5457    9594.5556   -1846.7088     4016.852    -2320.249    1792.7468    2742.4124     836.0623            0    5371.2215   -4490.3923   -51.832201      37.4456      37.4456      37.4456            0            0            0   0.82372725 
162000 0.82372724821372100834 333.72328809926000304 727.91732013946796087 3210.9286715887601531 5370.7401821296498383 8581.6688537184109009 9139.0603309915604768
  162000    52505.208    333.72329    727.91732    5370.7402    3210.9287    8581.6689    9139.0603   -1845.3705    3960.5605   -2374.5132    1909.6906     2796.739    879.01218            0    5585.4419   -4489.7032   -51.832201      37.4456      37.4456      37.4456            0            0            0   0.82372725 
163000 0.82372724821372100834 336.17629337785501775 -1048.255570186840032 3024.1815120994101562 5410.2173612374099321 8434.398873336820543 7631.7133146056403348
  163000    52505.208    336.17629   -1048.2556    5410.2174    3024.1815    8434.3989    7631.7133    -1885.635    4035.2819   -2339.9154    1835.3696    2686.4498    842.27744            0    5364.0969   -4489.5623   -51.832201      37.4456      37.4456      37.4456            0            0            0   0.82372725 
164000 0.82372724821372100834 324.79653734848699287 1695.0492180487199221 2927.3483513212399885 5227.0784699785399425 8154.4268212997903902 9452.3846546397708153
  164000    52505.208    324.79654    1695.0492    5227.0785    2927.3484    8154.4268    9452.3847   -1894.5686    4042.6521   -2339.5335    1814.5129    2658.5568    793.81211            0    5266.8819   -4487.6171   -51.832201      37.4456      37.4456      37.4456            0            0            0   0.82372725 
165000 0.82372724821372100834 333.07756457655699478 -103.25459835591099989 3097.0528940496601535 5360.348299412439701 8457.4011934620993998 8378.3355749907295831
  165000    52505.208    333.07756    -103.2546    5360.3483    3097.0529    8457.4012    8378.3356   -1901.5509    4059.9028   -2332.9093    1857.6487    2728.1876    844.12579            0    5429.9622   -4491.2612   -51.832201      37.4456      37.4456      37.4456            0            0            0   0.82372725 
166000 0.82372724821372100834 329.80624133825102717 225.10188240029100371 2972.2932255068999439 5307.701607403700109 8279.9948329105991434 8452.3631325741207547
  166000    52505.208    329.80624    225.10188    5307.7016    2972.2932    8279.9948    8452.3631   -1857.9958    4028.2581   -2318.6648    1764.9928    2716.6352    809.33015            0    5290.9581   -4488.9272   -51.832201      37.4456      37.4456      37.4456            0            0            0   0.82372725 
167000 0.82372724821372100834 328.8929062794239826 1820.270402835260029 3032.3700920681199023 5293.0029469412302205 8325.373039009360582 9719.2170660735100682
  167000    52505.208    328.89291    1820.2704    5293.0029    3032.3701     8325.373    9719.2171   -1841.6791    3993.0613   -2339.1944    1753.2114    2773.0321    845.32097            0    5371.5645   -4490.5766   -51.832201      37.4456      37.4456      37.4456            0            0            0   0.82372725 
168000 0.82372724821372000914 338.53122618613002714 1538.0794245034398955 3162.685886081299941 5448.116221492709883 8610.8021075740198285 9788.5627389918208792
  168000    52505.208    338.53123    1538.0794    5448.1162    3162.6859    8610.8021    9788.5627   -1880.8767    4055.8722   -2313.3152    1836.5406     2764.438    875.02258            0    5476.0011   -4488.3107   -51.832201      37.4456      37.4456      37.4456            0            0            0   0.82372725 
169000 0.82372724821372100834 335.17575079300297602 928.4326872874929677 2968.7523710930099696 5394.1152357459495761 8362.8676068389595457 9073.8006383770807588
  169000    52505.208    335.17575    928.43269    5394.1152    2968.7524    8362.8676    9073.8006   -1860.5315    3989.0369   -2361.8594    1804.9313    2712.6584    813.02212            0    5330.6118   -4490.3648   -51.832201      37.4456      37.4456      37.4456            0            0            0   0.82372725 
170000 0.82372724821372100834 332.92300440068299849 -32.308683560186700845 2989.1068904584899428 5357.8609016888503902 8346.9677921473394235 8322.2279152957798942
  170000    52505.208      332.923   -32.308684    5357.8609    2989.1069    8346.9678    8322.2279   -1847.4872    3980.2268   -2356.8913    1825.2804    2678.3806    842.33723            0    5345.9982   -4489.6309   -51.832201      37.4456      37.4456      37.4456            0            0            0   0.82372725 
171000 0.82372724821372100834 330.5305863453800157 -326.87468050166899047 2917.9870931113600818 5319.3587766041800933 8237.3458697155401751 7987.0466173044196694
  171000    52505.208    330.53059   -326.87468    5319.3588    2917.9871    8237.3459    7987.0466   -1896.7678    4005.9465   -2381.1509    1774.1385    2678.3333    846.66625            0     5299.138   -4490.3295   -51.832201      37.4456      37.4456      37.4456            0            0            0   0.82372725 
172000 0.82372724821372100834 331.24892580151401944 -74.286515452773102197 3040.018857823180042 5330.9192961095395731 8370.9381539327296196 8314.054398808229962
  172000    52505.208    331.24893   -74.286515    5330.9193    3040.0189    8370.9382    8314.0544   -1853.1778    3974.3824   -2369.9163    1823.4546    2753.7334    832.74715            0    5409.9352    -4491.121   -51.832201      37.4456      37.4456      37.4456            0            0            0   0.82372725 
173000 0.82372724821372100834 329.70300369653301686 1713.6556557692499609 3069.1562080805001642 5306.0401634156596629 8375.1963714961602818 9687.4017979636901146
  173000    52505.208      329.703    1713.6557    5306.0402    3069.1562    8375.1964    9687.4018   -1835.3206    3996.9655   -2328.8326    1851.4174     2698.223    848.34838            0    5397.9888   -4490.4774   -51.832201      37.4456      37.4456      37.4456            0            0            0   0.82372725 
174000 0.82372724821372000914 337.73765757022999878 643.72415738737697666 3049.9217301952799062 5435.3450095195603353 8485.2667397148397868 8978.188599265889934
  174000    52505.208    337.73766    643.72416     5435.345    3049.9217    8485.2667    8978.1886   -1826.6338    4005.7807   -2311.0229    1869.2667    2687.2081     804.4698            0    5360.9446   -4490.1698   -51.832201      37.4456      37.4456      37.4456            0            0            0   0.82372725 
175000 0.82372724821372100834 330.16224828086598109 740.72360809548399629 2945.0520625257900065 5313.4309672056797353 8258.4830297314692871 8825.680724777850628
  175000    52505.208    330.16225    740.72361     5313.431    2945.0521     8258.483    8825.6807    -1861.785    3970.5236   -2381.3294    1783.7933    2702.2263    840.36191            0    5326.3815    -4490.068   -51.832201      37.4456      37.4456      37.4456            0            0            0   0.82372725 
176000 0.82372724821372100834 330.02678815765500531 1000.0314040470000236 3011.3648100991999854 5311.2509541447097945 8322.6157642439193296 9088.3744104518391396
  176000    52505.208    330.02679    1000.0314     5311.251    3011.3648    8322.6158    9088.3744   -1898.8809    4020.2534   -2369.8988    1849.9377    2696.0342    835.29158            0    5381.2636   -4491.2713   -51.832201      37.4456      37.4456      37.4456            0            0            0   0.82372725 
177000 0.82372724821372100834 337.03181924709400619 1320.6182807209700059 3061.229426014820092 5423.9856756662402404 8485.2151016810603323 9496.4582113572396338
  177000    52505.208    337.03182    1320.6183    5423.9857    3061.2294    8485.2151    9496.4582    -1878.312    3975.8041   -2393.4742    1868.0179    2740.1729    846.51283            0    5454.7037   -4490.9663   -51.832201      37.4456      37.4456      37.4456            0            0            0   0.82372725 
178000 0.82372724821372100834 329.68235982322397604 1271.4097798862198943 3032.0908020612200744 5305.7079334399495565 8337.7987355011700856 9311.3611935211702075
  178000    52505.208    329.68236    1271.4098    5305.7079    3032.0908    8337.7987    9311.3612   -1859.5619    3985.0862   -2365.5447    1846.9709    2711.8702     838.7945            0    5397.6355    -4491.069   -51.832201      37.4456      37.4456      37.4456            0            0            0   0.82372725 
179000 0.82372724821372100834 334.53157131836900362 1151.0317031882700576 3192.3060133127000881 5383.748202001829668 8576.0542153145306656 9457.4390150407107285
  179000    52505.208    334.53157    1151.0317    5383.7482     3192.306    8576.0542     9457.439   -1849.1405    4003.5044   -2335.6257    1847.1048    2827.0231    853.80389            0    5527.9317   -4489.9896   -51.832201      37.4456      37.4456      37.4456            0            0            0   0.82372725 
180000 0.82372724821372100834 334.45697501459500245 379.58964924509302818 2961.699324404320123 5382.5476943345402105 8344.2470187388607883 8634.9119466042702697
  180000    52505.208    334.45698    379.58965    5382.5477    2961.6993     8344.247    8634.9119   -1885.0102    4015.0631   -2359.1797    1825.2015    2674.8826    820.79489            0     5320.879   -4489.2327   -51.832201      37.4456      37.4456      37.4456            0            0            0   0.82372725 
181000 0.82372724821372100834 329.17834249947497938 2397.7533455665397923 3123.8198406931701356 5297.5965843382300591 8421.4164250314097444 10257.459121701800541
  181000    52505.208    329.17834    2397.7533    5297.5966    3123.8198    8421.4164    10257.459   -1833.3758    4034.7154   -2287.2583    1868.2338    2675.7816    867.06275            0    5411.0781   -4488.5979   -51.832201      37.4456      37.4456      37.4456            0            0            0   0.82372725 
182000 0.82372724821372100834 330.64010214956601885 1427.227345898789963 3031.5797766373098057 5321.1212575310200918 8352.701034168339902 9445.5783936227599042
  182000    52505.208     330.6401    1427.2273    5321.1213    3031.5798     8352.701    9445.5784   -1887.0749    4020.5606   -2354.3003     1792.369    2740.5503    852.96077            0    5385.8801    -4487.786   -51.832201      37.4456      37.4456      37.4456            0            0            0   0.82372725 
183000 0.82372724821372100834 333.28058808853899109 1393.2132337025000197 3013.6405511404100253 5363.6156366723898827 8377.256187812799908 9444.087764702810091
  183000    52505.208    333.28059    1393.2132    5363.6156    3013.6406    8377.2562    9444.0878   -1871.0871    3977.5427   -2381.0259    1814.3041    2738.6558    841.70659            0    5394.6665   -4487.4815   -51.832201      37.4456      37.4456      37.4456            0            0            0   0.82372725 
184000 0.82372724821372100834 334.32620265197101617 863.7189456215089649 2916.7098521781899763 5380.4431232491397168 8297.1529754273306025 8958.5324559383006999
  184000    52505.208     334.3262    863.71895    5380.4431    2916.7099     8297.153    8958.5325   -1851.5134    3973.5625   -2366.6247     1805.646    2658.1125    819.57601            0    5283.3346   -4488.6738   -51.832201      37.4456      37.4456      37.4456            0            0            0   0.82372725 
185000 0.82372724821372100834 337.14810136999102497 771.09319481050897593 3051.0677064748101657 5425.8570496223701412 8476.9247560971798521 9067.3774944498691184
  185000    52505.208     337.1481    771.09319     5425.857    3051.0677    8476.9248    9067.3775   -1875.6953    3987.0525   -2376.8968    1848.0623    2731.9589    847.94329            0    5427.9645   -4488.2541   -51.832201      37.4456      37.4456      37.4456            0            0            0   0.82372725 
186000 0.82372724821372100834 332.5779899340120096 1782.1905649395100681 2961.451031816250179 5352.3084481273499478 8313.7594799435992172 9678.4444576050391333
  186000    52505.208    332.57799    1782.1906    5352.3084     2961.451    8313.7595    9678.4445   -1888.8741    4012.6406   -2364.0772    1788.3654    2687.8312    849.33165            0    5325.5282   -4487.8437   -51.832201      37.4456      37.4456      37.4456            0            0            0   0.82372725 
187000 0.82372724821372100834 336.03316167995598107 -43.2446237093799013 3028.9988596089801831 5407.9138865065297068 8436.9127461155094352 8403.7988415186591737
[...]
253000 0.82372724821372100834 330.70897429358001318 453.72101427405601726 3005.7066915133400471 5322.2296440430700386 8327.9363355564091762 8675.3662144987501961
  253000    52505.208    330.70897    453.72101    5322.2296    3005.7067    8327.9363    8675.3662   -1871.0951    3984.7615   -2376.3835    1775.2833    2748.6034    858.20352            0    5382.0902     -4490.05   -51.832201      37.4456      37.4456      37.4456            0            0            0   0.82372725 
254000 0.82372724821372100834 328.93840366021697719 2639.2325960451698847 2929.0665085830701173 5293.7351541917296345 8222.8016627748093015 10243.75337648760069
254000 0.82372724821372100834 328.93840366021697719 2639.2325960451698847 2929.0665085830701173 5293.7351541917296345 8222.8016627748093015 10243.75337648760069
  254000    52505.208     328.9384    2639.2326    5293.7352    2929.0665    8222.8017    10243.753   -1868.1038    4014.0744   -2342.0862    1742.1912    2681.2735    847.68801            0    5271.1527   -4488.0569   -51.832201      37.4456      37.4456      37.4456            0            0            0   0.82372725 
255000 0.82372724821372100834 334.5988231874150074 230.09011342695600888 3049.7295919656498882 5384.8305127913099568 8434.560104756959845 8610.748065505620616
255000 0.82372724821372100834 334.5988231874150074 230.09011342695600888 3049.7295919656498882 5384.8305127913099568 8434.560104756959845 8610.748065505620616
  255000    52505.208    334.59882    230.09011    5384.8305    3049.7296    8434.5601    8610.7481   -1864.5325    3975.7662   -2377.3631    1849.9108    2717.8781    859.30378            0    5427.0927   -4488.5968   -51.832201      37.4456      37.4456      37.4456            0            0            0   0.82372725 
256000 0.82372724821372100834 329.41881495242699884 -107.06998813621899558 2968.3185098813000877 5301.4666021398697922 8269.7851120211707894 8187.797917586190124
256000 0.82372724821372100834 329.41881495242699884 -107.06998813621899558 2968.3185098813000877 5301.4666021398697922 8269.7851120211707894 8187.797917586190124
  256000    52505.208    329.41881   -107.06999    5301.4666    2968.3185    8269.7851    8187.7979   -1876.3963    4027.8829   -2336.7086    1806.1248    2650.1984    848.70392            0    5305.0271   -4488.1952   -51.832201      37.4456      37.4456      37.4456            0            0            0   0.82372725 
257000 0.82372724821372100834 331.42699883865299171 548.84905161485494318 3028.7636554475498087 5333.7850955608300865 8362.54875100838035 8782.8214594815799501
257000 0.82372724821372100834 331.42699883865299171 548.84905161485494318 3028.7636554475498087 5333.7850955608300865 8362.54875100838035 8782.8214594815799501
  257000    52505.208      331.427    548.84905    5333.7851    3028.7637    8362.5488    8782.8215   -1856.6385    3973.1953   -2372.3959    1826.7558    2723.9502    850.45352            0    5401.1596   -4488.9528   -51.832201      37.4456      37.4456      37.4456            0            0            0   0.82372725 
258000 0.82372724821372100834 329.65608749204699279 -0.6732441263025960021 3085.9706595855600426 5305.2851224772102796 8391.2557820627698675 8390.7402557416498894
258000 0.82372724821372100834 329.65608749204699279 -0.6732441263025960021 3085.9706595855600426 5305.2851224772102796 8391.2557820627698675 8390.7402557416498894
  258000    52505.208    329.65609  -0.67324413    5305.2851    3085.9707    8391.2558    8390.7403   -1885.4655    4005.2874   -2368.1654    1844.4982    2757.8008    851.83712            0     5454.136   -4487.9872   -51.832201      37.4456      37.4456      37.4456            0            0            0   0.82372725 
259000 0.82372724821372100834 329.99161325372199371 1365.2506530677198953 3118.6020994859500206 5310.6848705758102369 8429.286970061759348 9474.7066314812000201
259000 0.82372724821372100834 329.99161325372199371 1365.2506530677198953 3118.6020994859500206 5310.6848705758102369 8429.286970061759348 9474.7066314812000201
  259000    52505.208    329.99161    1365.2507    5310.6849    3118.6021     8429.287    9474.7066   -1827.0256     3970.479   -2346.2377    1816.6278    2775.7958    872.41618            0    5464.8397   -4489.6911   -51.832201      37.4456      37.4456      37.4456            0            0            0   0.82372725 
260000 0.82372724821372100834 335.10482010572502531 123.90589899066100088 3157.3280695542598551 5392.9737202872001944 8550.3017898414491356 8645.1808237240802555
260000 0.82372724821372100834 335.10482010572502531 123.90589899066100088 3157.3280695542598551 5392.9737202872001944 8550.3017898414491356 8645.1808237240802555
  260000    52505.208    335.10482     123.9059    5392.9737    3157.3281    8550.3018    8645.1808   -1875.4349    4021.2035   -2343.8424    1877.0163     2767.182    856.97219            0    5501.1705    -4489.611   -51.832201      37.4456      37.4456      37.4456            0            0            0   0.82372725 
261000 0.82372724821372100834 332.13733707727902811 1092.0191057308500149 3070.7286621884900342 5345.2168483246896358 8415.9455105131801247 9252.1423225868493319
261000 0.82372724821372100834 332.13733707727902811 1092.0191057308500149 3070.7286621884900342 5345.2168483246896358 8415.9455105131801247 9252.1423225868493319
  261000    52505.208    332.13734    1092.0191    5345.2168    3070.7287    8415.9455    9252.1423   -1864.2024    3998.3183   -2354.7498    1880.5973    2713.9167    830.96452            0    5425.4784   -4488.8656   -51.832201      37.4456      37.4456      37.4456            0            0            0   0.82372725 
262000 0.82372724821372100834 325.40180994486797772 1343.9384882048200325 3047.0053118433002055 5236.8193600226395574 8283.8246718659393082 9312.9248712693606649
262000 0.82372724821372100834 325.40180994486797772 1343.9384882048200325 3047.0053118433002055 5236.8193600226395574 8283.8246718659393082 9312.9248712693606649
  262000    52505.208    325.40181    1343.9385    5236.8194    3047.0053    8283.8247    9312.9249   -1888.8449    4026.7628   -2350.7972    1854.6592    2702.0122    841.13115            0    5397.8025   -4488.7151   -51.832201      37.4456      37.4456      37.4456            0            0            0   0.82372725 
263000 0.82372724821372100834 334.99362123769498112 237.83679264421098765 3047.7927429662900067 5391.1841531516902251 8438.976896117979777 8621.096757170969795
263000 0.82372724821372100834 334.99362123769498112 237.83679264421098765 3047.7927429662900067 5391.1841531516902251 8438.976896117979777 8621.096757170969795
  263000    52505.208    334.99362    237.83679    5391.1842    3047.7927    8438.9769    8621.0968   -1879.1731    4007.9275   -2360.7586    1902.4928    2675.2737    830.78479            0    5408.5513    -4489.513   -51.832201      37.4456      37.4456      37.4456            0            0            0   0.82372725 
264000 0.82372724821372100834 331.8805335143590014 1238.7423754655699213 3017.3012776566001776 5341.0840075447104027 8358.3852852013096708 9306.9331813955104735
264000 0.82372724821372100834 331.8805335143590014 1238.7423754655699213 3017.3012776566001776 5341.0840075447104027 8358.3852852013096708 9306.9331813955104735
  264000    52505.208    331.88053    1238.7424     5341.084    3017.3013    8358.3853    9306.9332   -1859.4744    3999.7351   -2347.7484    1816.7563    2709.4961    838.79729            0    5365.0497   -4488.0091   -51.832201      37.4456      37.4456      37.4456            0            0            0   0.82372725 
265000 0.82372724821372100834 333.9435367323080186 1375.1407305342199834 2990.947549268109924 5374.2847300402900146 8365.2322793084003933 9418.2251152311491751
265000 0.82372724821372100834 333.9435367323080186 1375.1407305342199834 2990.947549268109924 5374.2847300402900146 8365.2322793084003933 9418.2251152311491751
  265000    52505.208    333.94354    1375.1407    5374.2847    2990.9475    8365.2323    9418.2251   -1867.5165    3981.6474   -2374.6134    1837.3645    2690.0307    838.16582            0    5365.5609   -4488.7443   -51.832201      37.4456      37.4456      37.4456            0            0            0   0.82372725 
266000 0.82372724821372100834 337.02630400617198347 599.88924463157002265 3034.1222071199099446 5423.8969167240402385 8458.0191238439492736 8917.3750740518698876
266000 0.82372724821372100834 337.02630400617198347 599.88924463157002265 3034.1222071199099446 5423.8969167240402385 8458.0191238439492736 8917.3750740518698876
  266000    52505.208     337.0263    599.88924    5423.8969    3034.1222    8458.0191    8917.3751   -1863.1797    3997.9562   -2355.6029    1832.4989    2701.1332    856.09295            0    5389.7251   -4490.3793   -51.832201      37.4456      37.4456      37.4456            0            0            0   0.82372725 
267000 0.82372724821372100834 333.56929544596897586 452.69800987240500945 3144.1111475178499859 5368.2619177702799789 8512.37306528812951 8859.0195943651506241
267000 0.82372724821372100834 333.56929544596897586 452.69800987240500945 3144.1111475178499859 5368.2619177702799789 8512.37306528812951 8859.0195943651506241
  267000    52505.208     333.5693    452.69801    5368.2619    3144.1111    8512.3731    8859.0196   -1846.0147    3979.9344   -2354.4164    1871.3441    2790.8251     836.3584            0    5498.5276   -4488.3362   -51.832201      37.4456      37.4456      37.4456            0            0            0   0.82372725 
268000 0.82372724821372100834 338.70475768995601129 272.67628606339599173 2985.9858089045101224 5450.9089322614900084 8436.8947411659992213 8645.6924077431704063
268000 0.82372724821372100834 338.70475768995601129 272.67628606339599173 2985.9858089045101224 5450.9089322614900084 8436.8947411659992213 8645.6924077431704063
  268000    52505.208    338.70476    272.67629    5450.9089    2985.9858    8436.8947    8645.6924   -1874.8859    3973.6155   -2390.0249    1819.3542    2700.1268    856.52979            0    5376.0108   -4488.7545   -51.832201      37.4456      37.4456      37.4456            0            0            0   0.82372725 
269000 0.82372724821372100834 334.397934293438027 1943.9656197296399114 2912.2062320433701643 5381.5975287788096466 8293.8037608221693517 9782.3654951984299259
269000 0.82372724821372100834 334.397934293438027 1943.9656197296399114 2912.2062320433701643 5381.5975287788096466 8293.8037608221693517 9782.3654951984299259
  269000    52505.208    334.39793    1943.9656    5381.5975    2912.2062    8293.8038    9782.3655   -1910.1403    4009.6082   -2391.0031    1806.5838    2650.8358    845.78976            0    5303.2094    -4490.471   -51.832201      37.4456      37.4456      37.4456            0            0            0   0.82372725 
270000 0.82372724821372100834 332.87745190271601814 685.46862313273095424 3110.484389792480215 5357.1278074159899916 8467.612197208469297 8992.4992384992892767
270000 0.82372724821372100834 332.87745190271601814 685.46862313273095424 3110.484389792480215 5357.1278074159899916 8467.612197208469297 8992.4992384992892767
  270000    52505.208    332.87745    685.46862    5357.1278    3110.4844    8467.6122    8992.4992   -1871.8164    3981.1242   -2380.1044    1876.2926    2746.2807    868.01546            0    5490.5888   -4489.4122   -51.832201      37.4456      37.4456      37.4456            0            0            0   0.82372725 
271000 0.82372724821372100834 332.05034741237801654 43.831135692389601388 2957.9781635971498872 5343.8168894204800381 8301.7950530176294706 8335.3580701326300186
271000 0.82372724821372100834 332.05034741237801654 43.831135692389601388 2957.9781635971498872 5343.8168894204800381 8301.7950530176294706 8335.3580701326300186
  271000    52505.208    332.05035    43.831136    5343.8169    2957.9782    8301.7951    8335.3581    -1861.542    3960.4889   -2389.9604    1838.3995    2666.8374    842.70163            0    5347.9386   -4488.9073   -51.832201      37.4456      37.4456      37.4456            0            0            0   0.82372725 
272000 0.82372724821372100834 331.13436737461000803 -21.835253388882300385 3019.3902803985201899 5329.0756622712397075 8348.4659426697508025 8331.7459336710198841
272000 0.82372724821372100834 331.13436737461000803 -21.835253388882300385 3019.3902803985201899 5329.0756622712397075 8348.4659426697508025 8331.7459336710198841
  272000    52505.208    331.13437   -21.835253    5329.0757    3019.3903    8348.4659    8331.7459   -1908.8516    3992.6469   -2405.6678    1840.1063    2740.4415    844.51034            0    5425.0581   -4489.4631   -51.832201      37.4456      37.4456      37.4456            0            0            0   0.82372725 
273000 0.82372724821372100834 339.30834841074198494 221.32799756353401222 3024.4793684760497854 5460.6227552198697595 8485.1021236959204543 8654.5806291671306099
273000 0.82372724821372100834 339.30834841074198494 221.32799756353401222 3024.4793684760497854 5460.6227552198697595 8485.1021236959204543 8654.5806291671306099
  273000    52505.208    339.30835      221.328    5460.6228    3024.4794    8485.1021    8654.5806   -1873.4122    3980.9002    -2380.464    1859.8837    2701.2918     843.7678            0    5404.9434   -4487.9521   -51.832201      37.4456      37.4456      37.4456            0            0            0   0.82372725 
274000 0.82372724821372100834 326.99403729456298606 141.61434501947300646 2986.9521062040998913 5262.4437012389698793 8249.3958074430702254 8357.8348111452305602
274000 0.82372724821372100834 326.99403729456298606 141.61434501947300646 2986.9521062040998913 5262.4437012389698793 8249.3958074430702254 8357.8348111452305602
  274000    52505.208    326.99404    141.61435    5262.4437    2986.9521    8249.3958    8357.8348   -1856.4703    3949.2369    -2396.925    1852.0798    2694.6697    837.12762            0    5383.8771   -4489.6916   -51.832201      37.4456      37.4456      37.4456            0            0            0   0.82372725 
275000 0.82372724821372100834 333.91183830522498965 705.11836752492899905 2996.3756292517700786 5373.774594781199994 8370.1502240329700726 8910.083754467239487
275000 0.82372724821372100834 333.91183830522498965 705.11836752492899905 2996.3756292517700786 5373.774594781199994 8370.1502240329700726 8910.083754467239487
  275000    52505.208    333.91184    705.11837    5373.7746    2996.3756    8370.1502    8910.0838   -1862.5489    3945.0908   -2406.8162    1845.2872      2740.19    817.71463            0    5403.1918   -4489.3581   -51.832201      37.4456      37.4456      37.4456            0            0            0   0.82372725 
276000 0.82372724821372100834 332.81595286566397363 -54.711758608372200285 2946.3456073337301859 5356.1380792153104267 8302.4836865490397031 8260.5890000081399194
276000 0.82372724821372100834 332.81595286566397363 -54.711758608372200285 2946.3456073337301859 5356.1380792153104267 8302.4836865490397031 8260.5890000081399194
  276000    52505.208    332.81595   -54.711759    5356.1381    2946.3456    8302.4837     8260.589   -1891.7202    3970.3615   -2410.3951    1839.8892    2699.8365    817.01494            0    5356.7407   -4489.0364   -51.832201      37.4456      37.4456      37.4456            0            0            0   0.82372725 
277000 0.82372724821372100834 332.21463614676997622 -783.76948069954505627 2865.118261097679806 5346.4608526640904529 8211.5791137617707136 7611.4197047164798278
277000 0.82372724821372100834 332.21463614676997622 -783.76948069954505627 2865.118261097679806 5346.4608526640904529 8211.5791137617707136 7611.4197047164798278
  277000    52505.208    332.21464   -783.76948    5346.4609    2865.1183    8211.5791    7611.4197   -1906.6103    3988.5952   -2407.4732    1789.1208    2670.7051    812.76558            0    5272.5915   -4489.4581   -51.832201      37.4456      37.4456      37.4456            0            0            0   0.82372725 
278000 0.82372724821372100834 334.77966735046902613 521.83602036088802834 3004.633641212350085 5387.7409090622795702 8392.3745502746296552 8791.9624460916602402
278000 0.82372724821372100834 334.77966735046902613 521.83602036088802834 3004.633641212350085 5387.7409090622795702 8392.3745502746296552 8791.9624460916602402
  278000    52505.208    334.77967    521.83602    5387.7409    3004.6336    8392.3746    8791.9624   -1894.9137    4038.3978   -2345.4458    1826.3007    2714.4653    809.31349            0    5350.0795   -4488.9299   -51.832201      37.4456      37.4456      37.4456            0            0            0   0.82372725 
279000 0.82372724821372100834 339.61505622979899499 351.73287321752900425 3045.043519099110199 5465.5587248292004006 8510.6022439283096901 8779.9362745716298377
279000 0.82372724821372100834 339.61505622979899499 351.73287321752900425 3045.043519099110199 5465.5587248292004006 8510.6022439283096901 8779.9362745716298377
  279000    52505.208    339.61506    351.73287    5465.5587    3045.0435    8510.6022    8779.9363   -1891.8804     3953.259   -2424.6054    1903.9762    2729.1521    836.52066            0     5469.649   -4485.9841   -51.832201      37.4456      37.4456      37.4456            0            0            0   0.82372725 
280000 0.82372724821372100834 328.98027640701900509 650.74411430400198242 3012.9481686910999088 5294.4090287812696261 8307.357197472370899 8805.6544809182705649
280000 0.82372724821372100834 328.98027640701900509 650.74411430400198242 3012.9481686910999088 5294.4090287812696261 8307.357197472370899 8805.6544809182705649
  280000    52505.208    328.98028    650.74411     5294.409    3012.9482    8307.3572    8805.6545   -1897.9836    4022.9404   -2363.3988    1835.1894    2739.1783    801.97932            0     5376.347   -4488.3556   -51.832201      37.4456      37.4456      37.4456            0            0            0   0.82372725 
  280518    52505.208    331.96746      16.1796    5342.4829    2947.9455    8290.4284    8302.8177   -1881.1627    4016.3485   -2350.6685    1819.4197    2660.2453    818.94908            0    5298.6141   -4485.8543   -51.832201      37.4456      37.4456      37.4456            0            0            0   0.82372725 
Loop time of 135.022 on 48 procs for 30000 steps with 5400 atoms

Performance: 19.197 ns/day, 1.250 hours/ns, 222.186 timesteps/s
69.8% CPU use with 48 MPI tasks x 1 OpenMP threads

MPI task timing breakdown:
Section |  min time  |  avg time  |  max time  |%varavg| %total
---------------------------------------------------------------
Pair    | 51.241     | 59.162     | 64.588     |  32.9 | 43.82
Bond    | 2.0588     | 2.4778     | 2.8497     |   9.8 |  1.84
Kspace  | 14.016     | 20.702     | 29.26      |  59.9 | 15.33
Neigh   | 12.718     | 13.259     | 13.753     |   8.8 |  9.82
Comm    | 26.977     | 30.607     | 35.761     |  34.4 | 22.67
Output  | 0.16163    | 0.16208    | 0.16229    |   0.0 |  0.12
Modify  | 2.0281     | 5.1525     | 7.2742     |  56.6 |  3.82
Other   |            | 3.5        |            |       |  2.59

Nlocal:    112.5 ave 124 max 95 min
Histogram: 1 1 2 4 10 8 4 6 9 3
Nghost:    6650.75 ave 6728 max 6583 min
Histogram: 3 4 9 3 7 9 3 4 3 3
Neighs:    81748.9 ave 90321 max 65462 min
Histogram: 1 0 1 2 11 6 5 5 9 8

Total # of neighbors = 3923946
Ave neighs/atom = 726.657
Ave special neighs/atom = 10.4444
Neighbor list builds = 3547
Dangerous builds = 0

write_data      restart.${NAME}.final.data
write_data      restart.octanol_333k.final.data
Ewald initialization ...
  using 12-bit tables for long-range coulomb (src/kspace.cpp:332)
  G vector (1/distance) = 0.142485
  estimated absolute RMS force accuracy = 0.0338118
  estimated relative force accuracy = 0.000101823
  KSpace vectors: actual max1d max3d = 128 4 364
                  kxmax kymax kzmax  = 4 4 4
Total wall time: 0:20:43
