
variable        infile index octanol.data   # The name of the (edited) data file

#>>>>>> Simulation settings <<<<<<<

units		 real		#angstroms = length -
atom_style	 full		#How the atoms are defined in the input data file
boundary        p p p           #periodic box in x, y and z
pair_style	 lj/cut/coul/long 14.0    #'lj/cut/coul/long 12.0' for your ethanol simulation
pair_modify     tail yes            #Tail corrections
pair_modify     mix arithmetic      #Lorentz-Berthelot pair interactions between dissimilar atom

# The settings below are additional settings you must add for your ethanol simulation as already detailed in your example NPT LAMMPS script in the tutorial
# For your ethanol homework, change/edit the pair_style line as advised above and uncomment the extra settings below and you should be good to go for this section.

special_bonds   lj/coul 0.0 0.0 0.5
kspace_style    ewald 0.0001
bond_style      harmonic
angle_style     harmonic
dihedral_style  opls


# >>> Using the variable command in LAMMPS to define inputs/settings for the simulation <<<<<<

variable   simulationTemp  index 323     #Simulation temperature
variable   simulationPress equal 0.987	#Simulation pressure

# Output files frequencies
variable        dumpfreq   index 1000          #Output frequency of dump information to dump
variable        thermofreq index 1000          #Output frequency of property information to log
variable        printfreq  index 1000          #Output frequency of information to be printed
variable        restartfreq index 1000000      #Output frequency of restart files


# Simulation run times (equilibration and production)
variable        NVT_equib  index 100000       # Equilibration run length (in timesteps)
variable        NVT_prod   index 30000       # Simulation run length  (in timesteps)


# Defining properties to output
# The first expression after the 'variable' command is a user defined name for the variable, it can be anything
# The expression after the 'equal' keyword are LAMMPS special/reserved terms for those property

variable    step        equal step
variable    density     equal density
variable    temp        equal temp
variable    press       equal press
variable    ke          equal ke
variable    pe          equal pe
variable    etotal      equal etotal
variable    enthalpy    equal enthalpy


# >>>>>>>>>>> Reading data, Neighbor list settings, energy minimization, assigning initial velocities & specifying thermodynamic property output style to log files <<<<<<<<<

read_data	${infile}
read_data	octanol.data
  orthogonal box = (0 0 0) to (40 40 40)
  3 by 4 by 4 MPI processor grid
  reading atoms ...
  5400 atoms
  scanning bonds ...
  1 = max bonds/atom
  scanning angles ...
  6 = max angles/atom
  scanning dihedrals ...
  10 = max dihedrals/atom
  reading bonds ...
  5200 bonds
  reading angles ...
  9800 angles
  reading dihedrals ...
  13200 dihedrals
  4 = max # of 1-2 neighbors
  6 = max # of 1-3 neighbors
  12 = max # of 1-4 neighbors
  16 = max # of special neighbors
  special bonds CPU = 0.0203287 secs
  read_data CPU = 0.150376 secs
neighbor        1.0 bin
neigh_modify    delay 0 every 1 check yes page 1000000 one 20000
timestep        1.0

minimize        1e-4 1e-6 10000 100000        #Energy minimize before creating velocities
Ewald initialization ...
  using 12-bit tables for long-range coulomb (src/kspace.cpp:332)
  G vector (1/distance) = 0.140701
  estimated absolute RMS force accuracy = 0.0347754
  estimated relative force accuracy = 0.000104725
  KSpace vectors: actual max1d max3d = 128 4 364
                  kxmax kymax kzmax  = 4 4 4
Neighbor list info ...
  update every 1 steps, delay 0 steps, check yes
  max neighbors/atom: 20000, page size: 1000000
  master list distance cutoff = 15
  ghost atom cutoff = 15
  binsize = 7.5, bins = 6 6 6
  1 neighbor lists, perpetual/occasional/extra = 1 0 0
  (1) pair lj/cut/coul/long, perpetual
      attributes: half, newton on
      pair build: half/bin/newton
      stencil: half/bin/3d/newton
      bin: standard
Per MPI rank memory allocation (min/avg/max) = 23.62 | 23.67 | 23.84 Mbytes
Step Temp E_pair E_mol TotEng Press 
       0            0     3405.817    1701.0249    5106.8419    4097.4389 
     518            0   -2313.0078    889.32797   -1423.6798   -1232.5021 
Loop time of 6.18167 on 48 procs for 518 steps with 5400 atoms

60.2% CPU use with 48 MPI tasks x 1 OpenMP threads

Minimization stats:
  Stopping criterion = energy tolerance
  Energy initial, next-to-last, final = 
         5106.84193569     -1423.57203144     -1423.67981613
  Force two-norm initial, final = 3350.81 23.069
  Force max component initial, final = 845.808 2.76546
  Final line search alpha, max atom move = 0.0129189 0.0357266
  Iterations, force evaluations = 518 1030

MPI task timing breakdown:
Section |  min time  |  avg time  |  max time  |%varavg| %total
---------------------------------------------------------------
Pair    | 1.0912     | 2.4423     | 3.8989     |  44.5 | 39.51
Bond    | 0.056351   | 0.089164   | 0.12449    |   5.4 |  1.44
Kspace  | 0.42341    | 1.8819     | 3.2423     |  50.8 | 30.44
Neigh   | 0.13214    | 0.13515    | 0.13992    |   0.6 |  2.19
Comm    | 0.88836    | 0.99803    | 1.2241     |   7.5 | 16.14
Output  | 0          | 0          | 0          |   0.0 |  0.00
Modify  | 0          | 0          | 0          |   0.0 |  0.00
Other   |            | 0.6351     |            |       | 10.27

Nlocal:    112.5 ave 146 max 70 min
Histogram: 4 4 2 3 3 11 4 6 6 5
Nghost:    5652.17 ave 5831 max 5357 min
Histogram: 15 1 0 0 0 0 0 0 11 21
Neighs:    69014.7 ave 109982 max 28120 min
Histogram: 2 3 6 7 7 4 8 5 3 3

Total # of neighbors = 3312706
Ave neighs/atom = 613.464
Ave special neighs/atom = 10.4444
Neighbor list builds = 39
Dangerous builds = 0
#velocity	all create ${simulationTemp} 886874 mom yes rot yes dist gaussian

velocity        all create  ${simulationTemp} 317879265 units box
velocity        all create  323 317879265 units box
velocity        all zero linear units box

# The 'velocity' command line above assigns initial velocities to the atoms in our data file, see the LAMMPS 'velocity' command
# The number '886874' is the seed number which helps LAMMPS to consistently assign the same randomized velocities for the same simulation with the same seed number
# Changing that seed number for your simulation of a given system is one easy way to run an 'independent' simulation of the same system as taught in class
# You will need to do this for your homework

thermo_style    custom step vol temp press ke pe etotal enthalpy evdwl ecoul epair ebond eangle edihed eimp emol elong etail lx ly lz xy xz yz density
thermo          ${thermofreq}
thermo          1000

fix npt_density all npt temp ${simulationTemp} ${simulationTemp} 100 iso ${simulationPress} ${simulationPress} 1000
fix npt_density all npt temp 323 ${simulationTemp} 100 iso ${simulationPress} ${simulationPress} 1000
fix npt_density all npt temp 323 323 100 iso ${simulationPress} ${simulationPress} 1000
fix npt_density all npt temp 323 323 100 iso 0.987 ${simulationPress} 1000
fix npt_density all npt temp 323 323 100 iso 0.987 0.987 1000

run 50000
Ewald initialization ...
  using 12-bit tables for long-range coulomb (src/kspace.cpp:332)
  G vector (1/distance) = 0.140701
  estimated absolute RMS force accuracy = 0.0347754
  estimated relative force accuracy = 0.000104725
  KSpace vectors: actual max1d max3d = 128 4 364
                  kxmax kymax kzmax  = 4 4 4
Per MPI rank memory allocation (min/avg/max) = 22.49 | 22.55 | 22.87 Mbytes
Step Volume Temp Press KinEng PotEng TotEng Enthalpy E_vdwl E_coul E_pair E_bond E_angle E_dihed E_impro E_mol E_long E_tail Lx Ly Lz Xy Xz Yz Density 
     518        64000          323    2480.3105    5198.1661   -1423.6798    3774.4863    6089.5444   -2105.2356    4220.8927   -2313.0078    42.286151    240.31421     606.7276            0    889.32797   -4428.6649    -42.52282           40           40           40            0            0            0   0.67578079 
    1000    64904.444    240.36504   -1295.8621    3868.2891     3102.319    6970.6081    5743.9907   -1673.6793    4337.7577   -1766.0193    1678.7927    2262.9126    926.63295            0    4868.3383   -4430.0977   -41.930264    40.187545    40.187545    40.187545            0            0            0   0.66636378 
    2000    63289.869    335.08449   -322.32427    5392.6466    3849.1745    9241.8211      8944.31   -1490.9969    4290.9142   -1628.3656    1802.8807    2627.4327    1047.2268            0    5477.5401   -4428.2829   -42.999938    39.851505    39.851505    39.851505            0            0            0   0.68336325 
    3000    61073.691    314.24391    111.10038    5057.2509    3770.5137    8827.7646    8926.7214   -1543.6359     4282.197   -1691.0234     1762.832     2668.486    1030.2192            0    5461.5371   -4429.5845   -44.560275    39.380817    39.380817    39.380817            0            0            0   0.70816041 
    4000    59494.241    326.42379    1164.5653    5253.2665    3617.4528    8870.7193     9881.169   -1571.7507    4196.0747   -1806.8565    1778.6864    2593.4165    1052.2064            0    5424.3093   -4431.1804   -45.743259    39.038367    39.038367    39.038367            0            0            0   0.72696062 
    5000     57937.45    328.10975   -232.19406    5280.3994    3569.3836    8849.7829    8653.5887    -1620.184    4194.1758   -1857.6836    1767.8235    2621.9533    1037.2904            0    5427.0672   -4431.6755   -46.972389    38.694846    38.694846    38.694846            0            0            0    0.7464942 
    6000    57160.058    325.19296   -358.19369    5233.4582    3470.8238     8704.282    8405.6843   -1637.5926     4193.697   -1874.7429    1678.2095    2643.8993    1023.4579            0    5345.5667   -4430.8473   -47.611226       38.521       38.521       38.521            0            0            0   0.75664671 
    7000    57354.709    327.89519     1158.417    5276.9463    3579.0513    8855.9976    9824.9666   -1628.4389    4190.9048   -1869.2369    1719.1528    2684.8011    1044.3342            0    5448.2881   -4431.7028   -47.449643    38.564677    38.564677    38.564677            0            0            0    0.7540788 
    8000    57271.939    320.03087   -178.12578    5150.3827    3376.1022    8526.4848    8377.7048   -1595.0668    4115.5771   -1910.2018    1715.3241    2594.0308    976.94901            0    5286.3039   -4430.7121   -47.518218    38.546116    38.546116    38.546116            0            0            0    0.7551686 
    9000    56827.332    317.74241   -203.34189    5113.5537    3476.2523     8589.806    8421.2827   -1644.1928    4148.1834   -1927.8485    1759.5634    2669.1016    975.43587            0    5404.1008    -4431.839   -47.889992    38.446112    38.446112    38.446112            0            0            0   0.76107691 
   10000    56408.546    317.57811     603.0165    5110.9095    3321.0798    8431.9894    8928.0674   -1689.9105    4136.1408    -1986.205    1713.3881    2634.6596    959.23711            0    5307.2848   -4432.4353   -48.245534    38.351437    38.351437    38.351437            0            0            0   0.76672726 
   11000     56569.08    330.39785    197.59463    5317.2226     3266.063    8583.2856    8746.3016   -1667.1592    4100.9226   -1996.4768    1690.5296    2615.3996    956.61057            0    5262.5398   -4430.2402   -48.108622    38.387784    38.387784    38.387784            0            0            0   0.76455142 
   12000    56019.319    315.58935   -196.14788    5078.9035    3111.7544    8190.6579    8030.4082   -1729.6955    4072.8809   -2089.3878    1690.9517    2570.3988    939.79168            0    5201.1422   -4432.5733   -48.580749    38.263023    38.263023    38.263023            0            0            0   0.77205455 
   13000    55763.912    326.51794    -509.0527    5254.7817    3244.4879    8499.2696    8085.2777    -1718.363    4060.5755   -2089.9992    1706.9092    2679.1337    948.44411            0    5334.4871   -4432.2117   -48.803256    38.204784    38.204784    38.204784            0            0            0   0.77559067 
   14000    55240.588    319.02021   -265.14595    5134.1177    3226.5465    8360.6643    8147.0554   -1758.0688    4029.7086   -2161.8317    1821.9969    2646.2536    920.12774            0    5388.3782   -4433.4714   -49.265595    38.084895    38.084895    38.084895            0            0            0   0.78293827 
   15000    55363.317    322.72577    258.93412    5193.7528    3123.5142     8317.267    8526.3348   -1741.0628    3971.1289   -2202.6816    1764.2124    2640.1617    921.82172            0    5326.1958   -4432.7477   -49.156384    38.113079    38.113079    38.113079            0            0            0   0.78120266 
   16000    56159.334    319.61857   -720.05995    5143.7473    3209.6277     8353.375     7763.627   -1672.2657    4000.4049   -2105.8037    1820.9107    2595.8167    898.70394            0    5315.4314   -4433.9428   -48.459629    38.294874    38.294874    38.294874            0            0            0   0.77012969 
   17000    55749.959     318.9635   -302.12092    5133.2052    3078.6359    8211.8411    7966.1999   -1724.1024    4023.6878   -2134.3724    1775.3575      2535.35    902.30087            0    5213.0083   -4433.9577    -48.81547    38.201597    38.201597    38.201597            0            0            0   0.77578479 
   18000    55725.313    325.32367    297.96264    5235.5618    3132.6101    8368.1719    8610.3251   -1734.3277    4045.7269   -2122.5699    1733.8838    2627.2658    894.03039            0      5255.18   -4433.9691    -48.83706    38.195967    38.195967    38.195967            0            0            0    0.7761279 
   19000    54698.436    322.48608     548.8953    5189.8954    3112.8167    8302.7121    8740.5772   -1774.1237    4022.3836   -2185.3537    1778.9311    2615.2914    903.94783            0    5298.1704   -4433.6135   -49.753899    37.959892    37.959892    37.959892            0            0            0   0.79069848 
   20000     55633.31    327.42257    175.74697    5269.3403    3141.0122    8410.3525    8552.9457   -1762.4717    4043.6209   -2152.3508    1782.4689    2630.0548    880.83932            0     5293.363   -4433.4999   -48.917824    38.174934    38.174934    38.174934            0            0            0   0.77741142 
   21000    55663.725    322.47533      707.513    5189.7224    3113.7287    8303.4512     8877.809   -1728.7188    4025.5861   -2136.4052    1712.1987    2682.6944     855.2408            0    5250.1339   -4433.2726   -48.891095     38.18189     38.18189     38.18189            0            0            0   0.77698663 
   22000    54779.572    318.88684    511.62858    5131.9714    3141.4024    8273.3738    8682.1158    -1766.802    4062.3604   -2136.8342    1787.6927    2606.9223    883.62155            0    5278.2365   -4432.3925   -49.680207    37.978652    37.978652    37.978652            0            0            0   0.78952735 
   23000    55490.329    326.10272   -548.21348    5248.0993    3321.5305    8569.6298    8125.9774   -1747.3494     4076.154   -2104.8582    1770.8733    2798.0977    857.41774            0    5426.3887   -4433.6629   -49.043869    38.142203    38.142203    38.142203            0            0            0   0.77941455 
   24000    55515.356    315.10414    493.27239    5071.0949    3117.7045    8188.7994    8588.1697   -1759.0106    4041.7033   -2148.8906    1774.8689    2642.6899     849.0363            0    5266.5951   -4431.5832    -49.02176    38.147936    38.147936    38.147936            0            0            0   0.77906319 
   25000    55386.332    322.28867   -112.62704    5186.7183    3181.2246    8367.9429    8276.9681   -1756.4822    4045.1596    -2144.969    1763.2644    2707.6896    855.23961            0    5326.1936   -4433.6465   -49.135957     38.11836     38.11836     38.11836            0            0            0   0.78087804 
   26000    54763.337      323.031    824.35594     5198.665    3074.3667    8273.0316    8931.4176   -1750.6929    4007.6118   -2176.7842    1753.8507    2646.5619    850.73836            0    5251.1509   -4433.7032   -49.694935      37.9749      37.9749      37.9749            0            0            0   0.78976141 
   27000    55557.576    322.84848    18.799976    5195.7276    3005.6503    8201.3779    8216.6106   -1696.3001    3964.1205    -2166.485    1724.1034    2627.1915    820.84037            0    5172.1353   -4434.3055   -48.984507    38.157604    38.157604    38.157604            0            0            0   0.77847115 
   28000    55559.531    333.01119    2151.7627    5359.2801    3160.6541    8519.9342    10263.462   -1738.5338    3985.1384   -2184.1791    1809.6161    2700.5369    834.68027            0    5344.8332   -4430.7837   -48.982784    38.158051    38.158051    38.158051            0            0            0   0.77844377 
   29000    55194.287    324.51663   -572.17134    5222.5738    2978.2325    8200.8063    7740.2358   -1757.3467    3971.3541   -2217.5963     1741.653    2632.3929    821.78298            0    5195.8288   -4431.6037   -49.306923    38.074252    38.074252    38.074252            0            0            0   0.78359506 
   30000    55264.918    324.16811   -550.91728     5216.965    3055.4458    8272.4108    7828.3813    -1781.305    4007.3429   -2205.0261    1732.4616    2689.9837    838.02659            0    5260.4719    -4431.064   -49.243907    38.090486    38.090486    38.090486            0            0            0   0.78259359 
   31000    55521.052     320.4853    2123.5305     5157.696    2965.0494    8122.7453    9842.2053   -1684.9532    3933.1591   -2183.6799    1735.0299    2592.9026     820.7967            0    5148.7293   -4431.8858   -49.016731     38.14924     38.14924     38.14924            0            0            0   0.77898326 
   32000    54613.317    317.59586   -957.07218    5111.1952    2985.4776    8096.6728    7334.3847   -1789.2152    3961.0073   -2261.3093    1785.8817    2628.2371    832.66812            0     5246.787   -4433.1014   -49.831445    37.940191    37.940191    37.940191            0            0            0   0.79193085 
   33000    55172.046    323.44102     123.7483    5205.2635    2995.1373    8200.4008    8299.9721   -1796.7017    3985.4166   -2243.6559    1764.9806    2631.6883    842.12431            0    5238.7932   -4432.3708     -49.3268    38.069137    38.069137    38.069137            0            0            0   0.78391094 
   34000    54694.023    319.83754    607.69528    5147.2713    2943.7767     8091.048    8575.7799   -1727.8487    3921.3159     -2238.27    1776.5228    2583.6849    821.83887            0    5182.0466   -4431.7371   -49.757914    37.958871    37.958871    37.958871            0            0            0   0.79076229 
   35000    54879.625    317.28612   -943.82725    5106.2103     2964.345    8070.5552    7315.1508    -1799.893    3955.7987   -2275.8941     1797.989    2600.0796    842.17047            0     5240.239   -4431.7998   -49.589633     38.00176     38.00176     38.00176            0            0            0   0.78808794 
   36000    55474.726    325.59976   -944.88082    5240.0051    2938.6211    8178.6262    7414.1779   -1752.1458    3940.6644   -2244.9307    1758.1759    2599.1522     826.2238            0    5183.5518   -4433.4493   -49.057664    38.138627    38.138627    38.138627            0            0            0   0.77963377 
   37000    54241.986    326.06168    696.20378    5247.4388    2954.7218    8202.1606    8752.9022   -1771.7078     3874.629   -2329.7378    1784.8345    2669.1145    830.51051            0    5284.4596   -4432.6589   -50.172581    37.854007    37.854007    37.854007            0            0            0   0.79735226 
   38000    54307.146    319.51807    597.63542      5142.13    3018.1122    8160.2422    8633.5779   -1780.3159    3883.7968   -2329.2902    1801.9662    2710.3941    835.04208            0    5347.4024   -4432.7711   -50.112382    37.869159    37.869159    37.869159            0            0            0   0.79639557 
   39000    55372.069    318.99077   -160.38026    5133.6439    2972.4869    8106.1308    7976.6165   -1728.4407     3900.132    -2262.477    1830.8597    2581.9909    822.11335            0    5234.9639   -4434.1683   -49.148614    38.115087    38.115087    38.115087            0            0            0   0.78107918 
   40000    53876.298    319.58912    689.21495    5143.2734    2825.2099    7968.4833    8510.0205   -1796.8291    3939.4911   -2290.3815    1750.9848     2543.362    821.24464            0    5115.5914   -4433.0435   -50.513131    37.768747    37.768747    37.768747            0            0            0   0.80276433 
   41000    54604.445    324.09371    743.03619    5215.7676    2978.4659    8194.2335    8785.9503   -1758.9562    3926.3918   -2266.8068    1758.1646     2659.669     827.4392            0    5245.2728   -4434.2424   -49.839541    37.938137    37.938137    37.938137            0            0            0   0.79205952 
   42000    54746.622    331.70456    679.46665    5338.2519    2942.9556    8281.2076    8823.7096   -1768.2248    3914.1367   -2288.0783    1785.5541    2635.0022    810.47765            0     5231.034   -4433.9903   -49.710107    37.971036    37.971036    37.971036            0            0            0   0.79000253 
   43000    54975.894    320.83495   -637.08215    5163.3231     2841.233    8004.5561    7493.7646   -1788.9488    3904.8079   -2318.2855    1703.7852    2629.1033    826.62996            0    5159.5185   -4434.1446   -49.502796    38.023968    38.023968    38.023968            0            0            0    0.7867079 
   44000    54248.973    322.83068    47.169367    5195.4411    2992.9688    8188.4099    8225.7287    -1803.622    3910.2618   -2326.3721    1799.8044    2685.1529    834.38359            0    5319.3409   -4433.0118   -50.166119    37.855633    37.855633    37.855633            0            0            0   0.79724957 
   45000    54351.573    320.08061   -33.079123    5151.1832    2846.1704    7997.3536     7971.133   -1786.5136    3905.0611   -2315.2089    1775.9338    2568.2354    817.21014            0    5161.3793   -4433.7565   -50.071421    37.879483    37.879483    37.879483            0            0            0    0.7957446 
   46000    54218.097    324.98164   -705.64737    5230.0575    2911.9453    8142.0027    7584.0365   -1827.1132    3904.5852   -2356.0518    1809.2805    2634.6935    824.02313            0    5267.9971   -4433.5239   -50.194688    37.848449    37.848449    37.848449            0            0            0   0.79770359 
   47000      54707.8    326.62453    50.135378    5256.4971    2865.1212    8121.6184    8161.6192    -1802.124    3895.3735   -2338.9445    1765.2466    2663.8966    774.92268            0    5204.0658   -4432.1941   -49.745383    37.962058    37.962058    37.962058            0            0            0   0.79056315 
   48000    54476.573     324.3672    -637.2308    5220.1689    2891.3346    8111.5035    7605.2333    -1767.749    3890.3964   -2310.4191    1759.8338    2617.6222    824.29773            0    5201.7537   -4433.0665   -49.956528    37.908499    37.908499    37.908499            0            0            0   0.79391871 
   49000    54225.767     319.6345    422.28133    5144.0037    2878.9217    8022.9254     8356.877    -1793.155    3848.0272   -2377.3838    1743.0547     2670.747    842.50379            0    5256.3055   -4432.2559   -50.187589    37.850234    37.850234    37.850234            0            0            0   0.79759076 
   50000    53502.279    319.97393    702.04812    5149.4663    2945.3039    8094.7702    8642.5614   -1793.9517    3838.5889   -2389.0459    1812.6422    2704.2632    817.44443            0    5334.3498   -4433.6831   -50.866253    37.681145    37.681145    37.681145            0            0            0   0.80837622 
   50518    53660.232    326.23125   -289.67011    5250.1679    2882.6466    8132.8145    7906.1247   -1837.0471    3866.2729   -2403.4868    1827.4891    2638.1969    820.44742            0    5286.1334   -4432.7126   -50.716525     37.71819     37.71819     37.71819            0            0            0   0.80599671 
Loop time of 251.183 on 48 procs for 50000 steps with 5400 atoms

Performance: 17.199 ns/day, 1.395 hours/ns, 199.058 timesteps/s
65.7% CPU use with 48 MPI tasks x 1 OpenMP threads

MPI task timing breakdown:
Section |  min time  |  avg time  |  max time  |%varavg| %total
---------------------------------------------------------------
Pair    | 89.881     | 102.98     | 116.38     |  61.6 | 41.00
Bond    | 4.2069     | 4.6099     | 5.0965     |   9.6 |  1.84
Kspace  | 28.06      | 40.818     | 54.581     | 100.1 | 16.25
Neigh   | 18.463     | 19.339     | 20.007     |  12.8 |  7.70
Comm    | 46.205     | 52.183     | 60.618     |  45.4 | 20.77
Output  | 0.054964   | 0.056025   | 0.064593   |   0.5 |  0.02
Modify  | 19.655     | 24.644     | 27.96      |  40.4 |  9.81
Other   |            | 6.555      |            |       |  2.61

Nlocal:    112.5 ave 131 max 92 min
Histogram: 1 1 4 6 8 13 9 1 3 2
Nghost:    6577.19 ave 6623 max 6495 min
Histogram: 1 2 3 3 5 4 7 8 10 5
Neighs:    80019.1 ave 97691 max 64914 min
Histogram: 2 3 6 7 11 7 7 3 1 1

Total # of neighbors = 3840916
Ave neighs/atom = 711.281
Ave special neighs/atom = 10.4444
Neighbor list builds = 5817
Dangerous builds = 0

unfix npt_density

fix reshape_box all deform 1 x final 0.0 37.4456 y final 0.0 37.4456 z final 0.0 37.4456 units box

run 100000
Ewald initialization ...
  using 12-bit tables for long-range coulomb (src/kspace.cpp:332)
  G vector (1/distance) = 0.14229
  estimated absolute RMS force accuracy = 0.0338832
  estimated relative force accuracy = 0.000102038
  KSpace vectors: actual max1d max3d = 128 4 364
                  kxmax kymax kzmax  = 4 4 4
Per MPI rank memory allocation (min/avg/max) = 22.51 | 22.56 | 22.89 Mbytes
Step Volume Temp Press KinEng PotEng TotEng Enthalpy E_vdwl E_coul E_pair E_bond E_angle E_dihed E_impro E_mol E_long E_tail Lx Ly Lz Xy Xz Yz Density 
   50518    53660.232    326.23125   -289.82249    5250.1679    2882.5737    8132.7416    7905.9325   -1837.0471    3916.0633   -2403.5597    1827.4891    2638.1969    820.44742            0    5286.1334    -4482.576   -50.716525     37.71819     37.71819     37.71819            0            0            0   0.80599671 
   51000    53654.624    326.23125   -209.95777    5250.1679    2882.2209    8132.3889    7968.0974   -1836.5945    3916.0768   -2403.0942    1826.6709    2638.1969    820.44742            0    5285.3151   -4482.5765   -50.721825    37.716876    37.716876    37.716876            0            0            0   0.80608095 
   52000    53642.992    326.23125   -44.137952    5250.1679    2881.4448    8131.6127    8097.0823   -1835.6517    3916.0408   -2402.1886    1824.9891    2638.1969    820.44742            0    5283.6334   -4482.5777   -50.732824    37.714151    37.714151    37.714151            0            0            0   0.80625575 
   53000    53631.361    326.23125    122.00321    5250.1679     2880.758    8130.9259    8226.3517   -1834.7087    3916.0679   -2401.2197    1823.3334    2638.1969    820.44742            0    5281.9777   -4482.5789   -50.743826    37.711425    37.711425    37.711425            0            0            0    0.8064306 
   54000    53619.732    326.23125    288.14393    5250.1679     2880.084    8130.2519    8355.5772   -1833.7639    3916.0798   -2400.2641    1821.7038    2638.1969    820.44742            0    5280.3481     -4482.58   -50.754832    37.708699    37.708699    37.708699            0            0            0    0.8066055 
   55000    53608.104    326.23125    454.28382    5250.1679    2879.4232    8129.5911    8484.7589   -1832.8156    3916.0754   -2399.3214    1820.1003    2638.1969    820.44742            0    5278.7446   -4482.5812    -50.76584    37.705973    37.705973    37.705973            0            0            0   0.80678045 
   56000    53596.479    326.23125    620.24555    5250.1679    2878.7321       8128.9    8613.7147   -1831.8663    3916.0136   -2398.4351    1818.5229    2638.1969    820.44742            0    5277.1672   -4482.5824   -50.776852    37.703247    37.703247    37.703247            0            0            0   0.80695545 
   57000    53584.855    326.23125    785.99719    5250.1679     2878.004    8128.1719    8742.4131   -1830.9135    3915.8852   -2397.6118    1816.9716    2638.1969    820.44742            0    5275.6159   -4482.5835   -50.787867    37.700521    37.700521    37.700521            0            0            0    0.8071305 
   58000    53573.232    326.23125    951.80363    5250.1679    2877.3018    8127.4697     8871.124   -1829.9593    3915.7551   -2396.7889    1815.4464    2638.1969    820.44742            0    5274.0907   -4482.5847   -50.798885    37.697795    37.697795    37.697795            0            0            0    0.8073056 
   59000    53561.611    326.23125    1117.5822    5250.1679    2876.6051    8126.7731    8999.7625   -1829.0048    3915.6042   -2395.9864    1813.9473    2638.1969    820.44742            0    5272.5916   -4482.5859   -50.809906    37.695069    37.695069    37.695069            0            0            0   0.80748075 
   60000    53549.992    326.23125    1284.3805    5250.1679     2876.166    8126.3339    9129.3987   -1828.0481    3915.6825   -2394.9526    1812.4743    2638.1969    820.44742            0    5271.1186    -4482.587   -50.820931    37.692343    37.692343    37.692343            0            0            0   0.80765596 
   61000    53538.375    326.23125    1451.0319    5250.1679    2875.7046    8125.8725    9258.8415   -1827.0891    3915.7102   -2393.9671    1811.0274    2638.1969    820.44742            0    5269.6716   -4482.5882   -50.831959    37.689617    37.689617    37.689617            0            0            0   0.80783121 
   62000    53526.759    326.23125    1616.7247    5250.1679    2875.0267    8125.1946    9387.2631   -1826.1272    3915.4924   -2393.2241    1809.6066    2638.1969    820.44742            0    5268.2508   -4482.5894   -50.842989    37.686891    37.686891    37.686891            0            0            0   0.80800651 
   63000    53515.145    326.23125     1783.769    5250.1679    2874.6856    8124.8535    9517.0201   -1825.1638    3915.5838   -2392.1705    1808.2119    2638.1969    820.44742            0    5266.8561   -4482.5905   -50.854023    37.684166    37.684166    37.684166            0            0            0   0.80818187 
   64000    53503.533    326.23125    1950.5518    5250.1679    2874.2951     8124.463    9646.4672   -1824.1972    3915.5965   -2391.1924    1806.8432    2638.1969    820.44742            0    5265.4875   -4482.5917   -50.865061     37.68144     37.68144     37.68144            0            0            0   0.80835728 
   65000    53491.923    326.23125    2116.8682    5250.1679    2873.8056    8123.9735    9775.3949   -1823.2288    3915.4823   -2390.3394    1805.5007    2638.1969    820.44742            0     5264.145   -4482.5929   -50.876101    37.678714    37.678714    37.678714            0            0            0   0.80853273 
   66000    53480.314    326.23125    2283.5651    5250.1679    2873.4196    8123.5875    9904.6667   -1822.2599     3915.445    -2389.409    1804.1843    2638.1969    820.44742            0    5262.8286    -4482.594   -50.887145    37.675988    37.675988    37.675988            0            0            0   0.80870824 
   67000    53468.706    326.23125    2450.5203    5250.1679    2873.1084    8123.2764    10034.158   -1821.2887     3915.454   -2388.4298     1802.894    2638.1969    820.44742            0    5261.5383   -4482.5952   -50.898192    37.673262    37.673262    37.673262            0            0            0    0.8088838 
   68000    53457.101    326.23125    2617.5911    5250.1679     2872.838     8123.006    10163.724   -1820.3146     3915.475    -2387.436    1801.6298    2638.1969    820.44742            0     5260.274   -4482.5964   -50.909242    37.670536    37.670536    37.670536            0            0            0   0.80905941 
   69000    53445.497    326.23125    2784.1503    5250.1679    2872.4584    8122.6263    10292.726   -1819.3375    3915.3575   -2386.5776    1800.3916    2638.1969    820.44742            0    5259.0359   -4482.5976   -50.920295     37.66781     37.66781     37.66781            0            0            0   0.80923507 
   70000    53433.895    326.23125    2951.5711    5250.1679    2872.2967    8122.4647    10422.561   -1818.3606    3915.4322   -2385.5272    1799.1796    2638.1969    820.44742            0    5257.8239   -4482.5987   -50.931351    37.665084    37.665084    37.665084            0            0            0   0.80941078 
   71000    53422.294    326.23125    3118.5373    5250.1679    2872.0392    8122.2071    10551.889    -1817.382     3915.383   -2384.5988    1797.9937    2638.1969    820.44742            0     5256.638   -4482.5999   -50.942411    37.662358    37.662358    37.662358            0            0            0   0.80958654 
   72000    53410.695    326.23125    3285.7546    5250.1679    2871.8548    8122.0227    10681.429   -1816.4006    3915.3782   -2383.6234    1796.8339    2638.1969    820.44742            0    5255.4782   -4482.6011   -50.953474    37.659632    37.659632    37.659632            0            0            0   0.80976235 
   73000    53399.098    326.23125    3453.3335    5250.1679    2871.7698    8121.9377    10811.294   -1815.4167    3915.4443   -2382.5746    1795.7001    2638.1969    820.44742            0    5254.3444   -4482.6022    -50.96454    37.656907    37.656907    37.656907            0            0            0   0.80993822 
   74000    53387.503    326.23125    3619.9496    5250.1679    2871.4677    8121.6356    10940.135   -1814.4304    3915.2647   -2381.7691    1794.5925    2638.1969    820.44742            0    5253.2368   -4482.6034   -50.975609    37.654181    37.654181    37.654181            0            0            0   0.81011413 
   75000    53375.909    326.23125    3787.0327    5250.1679    2871.2899    8121.4578    11069.409   -1813.4427    3915.1819   -2380.8654     1793.511    2638.1969    820.44742            0    5252.1553   -4482.6046   -50.986682    37.651455    37.651455    37.651455            0            0            0    0.8102901 
   76000    53364.317    326.23125    3953.9834    5250.1679    2871.0935    8121.2614    11198.504   -1812.4526     3915.052   -2380.0064    1792.4556    2638.1969    820.44742            0    5251.0998   -4482.6057   -50.997757    37.648729    37.648729    37.648729            0            0            0   0.81046611 
   77000    53352.726    326.23125    4120.8744    5250.1679    2870.8957    8121.0636    11327.495   -1811.4607    3914.8928   -2379.1748    1791.4262    2638.1969    820.44742            0    5250.0705   -4482.6069   -51.008836    37.646003    37.646003    37.646003            0            0            0   0.81064218 
   78000    53341.137    326.23125    4288.7313    5250.1679     2870.941    8121.1089    11457.424   -1810.4677    3914.9496   -2378.1263     1790.423    2638.1969    820.44742            0    5249.0673   -4482.6081   -51.019918    37.643277    37.643277    37.643277            0            0            0    0.8108183 
   79000     53329.55    326.23125    4456.1481    5250.1679    2870.8944    8121.0623    11586.862   -1809.4716    3914.8852   -2377.1957    1789.4458    2638.1969    820.44742            0    5248.0901   -4482.6092   -51.031003    37.640551    37.640551    37.640551            0            0            0   0.81099447 
   80000    53317.965    326.23125    4623.8653    5250.1679    2870.9323    8121.1002    11716.562   -1808.4736    3914.8772   -2376.2068    1788.4948    2638.1969    820.44742            0    5247.1391   -4482.6104   -51.042092    37.637825    37.637825    37.637825            0            0            0   0.81117069 
   81000    53306.381    326.23125    4791.6445    5250.1679    2870.9976    8121.1656     11846.28   -1807.4737    3914.8688   -2375.2165    1787.5699    2638.1969    820.44742            0    5246.2141   -4482.6116   -51.053184    37.635099    37.635099    37.635099            0            0            0   0.81134696 
   82000    53294.799    326.23125    4959.6097    5250.1679    2871.1198    8121.2878    11976.144   -1806.4724    3914.8897   -2374.1954     1786.671    2638.1969    820.44742            0    5245.3153   -4482.6127   -51.064279    37.632373    37.632373    37.632373            0            0            0   0.81152328 
   83000    53283.219    326.23125    5127.4312    5250.1679     2871.221     8121.389    12105.819   -1805.4675    3914.8599   -2373.2215    1785.7983    2638.1969    820.44742            0    5244.4425   -4482.6139   -51.075377    37.629648    37.629648    37.629648            0            0            0   0.81169966 
   84000     53271.64    326.23125    5294.7848    5250.1679    2871.2235    8121.3914    12234.974   -1804.4604    3914.7031   -2372.3724    1784.9516    2638.1969    820.44742            0    5243.5959   -4482.6151   -51.086478    37.626922    37.626922    37.626922            0            0            0   0.81187608 
   85000    53260.063    326.23125    5462.8207    5250.1679    2871.4017    8121.5697     12364.78   -1803.4509    3914.6935   -2371.3736    1784.1311    2638.1969    820.44742            0    5242.7754   -4482.6162   -51.097583    37.624196    37.624196    37.624196            0            0            0   0.81205256 
   86000    53248.487    326.23125    5630.7938    5250.1679    2871.5767    8121.7446    12494.476   -1802.4421    3914.6553   -2370.4042    1783.3366    2638.1969    820.44742            0    5241.9809   -4482.6174    -51.10869     37.62147     37.62147     37.62147            0            0            0   0.81222909 
   87000    53236.914    326.23125    5799.7528    5250.1679    2872.0004    8122.1684     12625.13   -1801.4293    3914.8357   -2369.2121    1782.5683    2638.1969    820.44742            0    5241.2126   -4482.6186   -51.119801    37.618744    37.618744    37.618744            0            0            0   0.81240566 
   88000    53225.342    326.23125    5967.9167    5250.1679    2872.2469    8122.4148    12754.933   -1800.4154    3914.8117   -2368.2234     1781.826    2638.1969    820.44742            0    5240.4703   -4482.6197   -51.130916    37.616018    37.616018    37.616018            0            0            0   0.81258229 
   89000    53213.771    326.23125    6136.7623    5250.1679    2872.6689    8122.8368    12885.383   -1799.3987    3914.9344   -2367.0852    1781.1099    2638.1969    820.44742            0    5239.7541   -4482.6209   -51.142033    37.613292    37.613292    37.613292            0            0            0   0.81275897 
   90000    53202.203    326.23125    6304.4923    5250.1679     2872.838     8123.006    13014.659   -1798.3796    3914.7757   -2366.2261    1780.4198    2638.1969    820.44742            0    5239.0641   -4482.6221   -51.153154    37.610566    37.610566    37.610566            0            0            0   0.81293571 
   91000    53190.636    326.23125    6473.1016    5250.1679    2873.2292    8123.3971    13144.782   -1797.3588    3914.8111   -2365.1709    1779.7559    2638.1969    820.44742            0    5238.4001   -4482.6232   -51.164278     37.60784     37.60784     37.60784            0            0            0   0.81311249 
   92000    53179.071    326.23125    6640.3275    5250.1679    2873.3036    8123.4715    13273.459   -1796.3359    3914.5016   -2364.4586     1779.118    2638.1969    820.44742            0    5237.7623   -4482.6244   -51.175405    37.605114    37.605114    37.605114            0            0            0   0.81328932 
   93000    53167.507    326.23125    6808.6171    5250.1679    2873.6439    8123.8119     13403.17   -1795.3112    3914.4302   -2363.5066    1778.5062    2638.1969    820.44742            0    5237.1505   -4482.6256   -51.186535    37.602388    37.602388    37.602388            0            0            0   0.81346621 
   94000    53155.945    326.23125    6977.4684    5250.1679    2874.1312    8124.2991    13533.407   -1794.2834    3914.4765   -2362.4336    1777.9206    2638.1969    820.44742            0    5236.5648   -4482.6267   -51.197669    37.599663    37.599663    37.599663            0            0            0   0.81364315 
   95000    53144.385    326.23125    7146.3693    5250.1679    2874.6427    8124.8106    13663.649   -1793.2544    3914.5197   -2361.3626     1777.361    2638.1969    820.44742            0    5236.0053   -4482.6279   -51.208806    37.596937    37.596937    37.596937            0            0            0   0.81382013 
   96000    53132.826    326.23125    7315.2677    5250.1679    2875.1664    8125.3344    13793.846   -1792.2228    3914.5465   -2360.3054    1776.8275    2638.1969    820.44742            0    5235.4718   -4482.6291   -51.219946    37.594211    37.594211    37.594211            0            0            0   0.81399717 
   97000    53121.269    326.23125     7484.148    5250.1679    2875.6986    8125.8665     13923.98    -1791.189    3914.5534   -2359.2659    1776.3202    2638.1969    820.44742            0    5234.9644   -4482.6302   -51.231089    37.591485    37.591485    37.591485            0            0            0   0.81417427 
   98000    53109.714    326.23125    7653.2649    5250.1679    2876.2996    8126.4675    14054.309   -1790.1534    3914.6012   -2358.1836    1775.8389    2638.1969    820.44742            0    5234.4832   -4482.6314   -51.242235    37.588759    37.588759    37.588759            0            0            0   0.81435141 
   99000     53098.16    326.23125    7822.2568    5250.1679    2876.8833    8127.0513    14184.468   -1789.1165    3914.6044   -2357.1447    1775.3837    2638.1969    820.44742            0     5234.028   -4482.6326   -51.253385    37.586033    37.586033    37.586033            0            0            0    0.8145286 
  100000    53086.608    326.23125     7991.893    5250.1679    2877.6332    8127.8011    14315.234    -1788.077     3914.745   -2355.9657    1774.9546    2638.1969    820.44742            0    5233.5989   -4482.6337   -51.264538    37.583307    37.583307    37.583307            0            0            0   0.81470585 
  101000    53075.058    326.23125    8161.7198    5250.1679    2878.4415    8128.6094     14446.15   -1787.0343    3914.9148   -2354.7545    1774.5517    2638.1969    820.44742            0    5233.1959   -4482.6349   -51.275694    37.580581    37.580581    37.580581            0            0            0   0.81488314 
  102000     53063.51    326.23125     8330.799    5250.1679    2879.0844    8129.2523    14576.265   -1785.9905    3914.8918   -2353.7347    1774.1748    2638.1969    820.44742            0    5232.8191   -4482.6361   -51.286854    37.577855    37.577855    37.577855            0            0            0   0.81506049 
  103000    53051.963    326.23125    8500.3164    5250.1679    2879.8445    8130.0125    14706.779   -1784.9437    3914.9572   -2352.6238     1773.824    2638.1969    820.44742            0    5232.4683   -4482.6372   -51.298016    37.575129    37.575129    37.575129            0            0            0   0.81523789 
  104000    53040.418    326.23125    8669.4623    5250.1679    2880.5289    8130.6969    14836.873   -1783.8955    3914.9192   -2351.6147    1773.4993    2638.1969    820.44742            0    5232.1436   -4482.6384   -51.309182    37.572404    37.572404    37.572404            0            0            0   0.81541534 
  105000    53028.874    326.23125    8838.7421    5250.1679    2881.2579    8131.4258    14967.059   -1782.8447    3914.8972   -2350.5872    1773.2008    2638.1969    820.44742            0     5231.845   -4482.6396   -51.320352    37.569678    37.569678    37.569678            0            0            0   0.81559284 
  106000    53017.332    326.23125    9007.7079    5250.1679    2881.9248    8132.0927    15096.883    -1781.792     3914.785   -2349.6477    1772.9283    2638.1969    820.44742            0    5231.5725   -4482.6407   -51.331524    37.566952    37.566952    37.566952            0            0            0    0.8157704 
  107000    53005.792    326.23125    9176.5526    5250.1679    2882.5755    8132.7434    15226.541   -1780.7378    3914.6291   -2348.7507    1772.6819    2638.1969    820.44742            0    5231.3262   -4482.6419     -51.3427    37.564226    37.564226    37.564226            0            0            0     0.815948 
  108000    52994.254    326.23125    9346.2953    5250.1679     2883.452      8133.62    15357.062   -1779.6816    3914.6708   -2347.6538    1772.4616    2638.1969    820.44742            0    5231.1059   -4482.6431   -51.353879      37.5615      37.5615      37.5615            0            0            0   0.81612566 
  109000    52982.717    326.23125    9516.3842    5250.1679    2884.4237    8134.5916    15487.888   -1778.6222    3914.7785    -2346.488    1772.2674    2638.1969    820.44742            0    5230.9117   -4482.6442   -51.365061    37.558774    37.558774    37.558774            0            0            0   0.81630337 
  110000    52971.182    326.23125    9686.5119    5250.1679    2885.4167    8135.5846    15618.709   -1777.5619    3914.8804   -2345.3269    1772.0993    2638.1969    820.44742            0    5230.7436   -4482.6454   -51.376246    37.556048    37.556048    37.556048            0            0            0   0.81648113 
  111000    52959.648    326.23125    9856.1788    5250.1679    2886.3139    8136.4818    15749.021   -1776.4977    3914.8566   -2344.2877    1771.9573    2638.1969    820.44742            0    5230.6016   -4482.6466   -51.387435    37.553322    37.553322    37.553322            0            0            0   0.81665894 
  112000    52948.116    326.23125    10025.538    5250.1679    2887.1504    8137.3184    15878.979   -1775.4329    3914.7453   -2343.3353    1771.8414    2638.1969    820.44742            0    5230.4857   -4482.6477   -51.398627    37.550596    37.550596    37.550596            0            0            0   0.81683681 
  113000    52936.586    326.23125     10195.43    5250.1679    2888.1259    8138.2938    16009.429    -1774.365    3914.7439     -2342.27    1771.7516    2638.1969    820.44742            0    5230.3959   -4482.6489   -51.409822     37.54787     37.54787     37.54787            0            0            0   0.81701472 
  114000    52925.058    326.23125    10365.367    5250.1679    2889.1248    8139.2927    16139.881   -1773.2956    3914.7382   -2341.2074    1771.6879    2638.1969    820.44742            0    5230.3322   -4482.6501    -51.42102    37.545145    37.545145    37.545145            0            0            0   0.81719269 
  115000    52913.531    326.23125    10535.122    5250.1679    2890.0938    8140.2617    16270.106   -1772.2224    3914.6728   -2340.2009    1771.6503    2638.1969    820.44742            0    5230.2946   -4482.6512   -51.432222    37.542419    37.542419    37.542419            0            0            0   0.81737071 
  116000    52902.006    326.23125    10704.742    5250.1679    2891.0433    8141.2112     16400.15   -1771.1473    3914.5598   -2339.2398    1771.6388    2638.1969    820.44742            0    5230.2831   -4482.6524   -51.443427    37.539693    37.539693    37.539693            0            0            0   0.81754878 
  117000    52890.483    326.23125    10874.313    5250.1679    2891.9936    8142.1615      16530.1   -1770.0713    3914.4208   -2338.3041    1771.6534    2638.1969    820.44742            0    5230.2977   -4482.6536   -51.454635    37.536967    37.536967    37.536967            0            0            0    0.8177269 
  118000    52878.961    326.23125    11043.521    5250.1679    2892.8714    8143.0393    16659.642   -1768.9914    3914.1792    -2337.467    1771.6941    2638.1969    820.44742            0    5230.3384   -4482.6547   -51.465846    37.534241    37.534241    37.534241            0            0            0   0.81790507 
  119000    52867.441    326.23125     11213.68    5250.1679    2893.9869    8144.1548    16790.097    -1767.909    3914.1466   -2336.4183    1771.7609    2638.1969    820.44742            0    5230.4052   -4482.6559   -51.477061    37.531515    37.531515    37.531515            0            0            0    0.8180833 
  120000    52855.922    326.23125    11383.696    5250.1679    2895.0802    8145.2481    16920.363   -1766.8269     3914.066   -2335.4179    1771.8538    2638.1969    820.44742            0    5230.4981    -4482.657   -51.488279    37.528789    37.528789    37.528789            0            0            0   0.81826158 
  121000    52844.406    326.23125    11554.061    5250.1679    2896.2694    8146.4373    17050.938   -1765.7414    3914.0519   -2334.3477    1771.9728    2638.1969    820.44742            0    5230.6171   -4482.6582     -51.4995    37.526063    37.526063    37.526063            0            0            0   0.81843991 
  122000    52832.891    326.23125    11723.987    5250.1679    2897.3665    8147.5344    17181.024   -1764.6552    3913.9188   -2333.3957    1772.1179    2638.1969    820.44742            0    5230.7622   -4482.6594   -51.510724    37.523337    37.523337    37.523337            0            0            0   0.81861829 
  123000    52821.377    326.23125    11894.215    5250.1679    2898.5487    8148.7166    17311.373   -1763.5647    3913.8406   -2332.3847    1772.2891    2638.1969    820.44742            0    5230.9333   -4482.6605   -51.521952    37.520611    37.520611    37.520611            0            0            0   0.81879672 
  124000    52809.865    326.23125    12064.507    5250.1679    2899.7585    8149.9264    17441.741   -1762.4726    3913.7622   -2331.3721    1772.4864    2638.1969    820.44742            0    5231.1306   -4482.6617   -51.533183    37.517885    37.517885    37.517885            0            0            0    0.8189752 
  125000    52798.355    326.23125    12235.179    5250.1679    2901.0709    8151.2388    17572.447   -1761.3784    3913.7581   -2330.2832    1772.7097    2638.1969    820.44742            0     5231.354   -4482.6629   -51.544417     37.51516     37.51516     37.51516            0            0            0   0.81915374 
  126000    52786.847    326.23125     12405.89    5250.1679    2902.4047    8152.5726    17703.148   -1760.2832    3913.7484   -2329.1988    1772.9592    2638.1969    820.44742            0    5231.6035    -4482.664   -51.555655    37.512434    37.512434    37.512434            0            0            0   0.81933233 
  127000     52775.34    326.23125    12576.517    5250.1679    2903.7317    8153.8996     17833.72    -1759.185    3913.7028   -2328.1474    1773.2348    2638.1969    820.44742            0    5231.8791   -4482.6652   -51.566896    37.509708    37.509708    37.509708            0            0            0   0.81951097 
  128000    52763.835    326.23125    12747.159    5250.1679    2905.0746    8155.2425    17964.263   -1758.0846    3913.6448   -2327.1062    1773.5365    2638.1969    820.44742            0    5232.1808   -4482.6664    -51.57814    37.506982    37.506982    37.506982            0            0            0   0.81968966 
  129000    52752.332    326.23125    12917.762    5250.1679    2906.4209    8156.5888    18094.722   -1756.9824    3913.5623   -2326.0877    1773.8643    2638.1969    820.44742            0    5232.5085   -4482.6675   -51.589387    37.504256    37.504256    37.504256            0            0            0   0.81986841 
  130000     52740.83    326.23125    13089.212    5250.1679    2907.9796    8158.1475    18225.989   -1755.8783    3913.6642   -2324.8828    1774.2181    2638.1969    820.44742            0    5232.8624   -4482.6687   -51.600637     37.50153     37.50153     37.50153            0            0            0    0.8200472 
  131000     52729.33    326.23125    13260.836    5250.1679    2909.5917    8159.7596    18357.385   -1754.7725    3913.7917   -2323.6507    1774.5981    2638.1969    820.44742            0    5233.2424   -4482.6699   -51.611891    37.498804    37.498804    37.498804            0            0            0   0.82022605 
  132000    52717.832    326.23125    13432.167    5250.1679    2911.1474    8161.3154    18488.442   -1753.6638    3913.8338    -2322.501    1775.0042    2638.1969    820.44742            0    5233.6485    -4482.671   -51.623148    37.496078    37.496078    37.496078            0            0            0   0.82040495 
  133000    52706.335    326.23125    13603.843    5250.1679     2912.797    8162.9649    18619.801   -1752.5536    3913.9422   -2321.2837    1775.4363    2638.1969    820.44742            0    5234.0806   -4482.6722   -51.634409    37.493352    37.493352    37.493352            0            0            0    0.8205839 
  134000     52694.84    326.23125    13775.044    5250.1679    2914.3473    8164.5153     18750.64    -1751.441    3913.9228   -2320.1916    1775.8946    2638.1969    820.44742            0    5234.5389   -4482.6734   -51.645672    37.490626    37.490626    37.490626            0            0            0   0.82076291 
  135000    52683.347    326.23125    13945.538    5250.1679    2915.7432    8165.9112    18880.722    -1750.326    3913.7205     -2319.28     1776.379    2638.1969    820.44742            0    5235.0233   -4482.6745   -51.656939    37.487901    37.487901    37.487901            0            0            0   0.82094196 
  136000    52671.855    326.23125    14117.035    5250.1679    2917.3886    8167.5566    19011.768   -1749.2086    3913.7392   -2318.1451    1776.8894    2638.1969    820.44742            0    5235.5337   -4482.6757    -51.66821    37.485175    37.485175    37.485175            0            0            0   0.82112107 
  137000    52660.365    326.23125    14288.336    5250.1679    2918.9999    8169.1678    19142.573   -1748.0901    3913.6965   -2317.0704     1777.426    2638.1969    820.44742            0    5236.0703   -4482.6768   -51.679483    37.482449    37.482449    37.482449            0            0            0   0.82130023 
  138000    52648.877    326.23125      14459.2    5250.1679    2920.5214    8170.6893    19272.895   -1746.9674    3913.5338   -2316.1116    1777.9887    2638.1969    820.44742            0    5236.6329    -4482.678    -51.69076    37.479723    37.479723    37.479723            0            0            0   0.82147945 
  139000     52637.39    326.23125    14630.983    5250.1679    2922.2721    8172.4401    19404.095   -1745.8425    3913.5721   -2314.9496    1778.5774    2638.1969    820.44742            0    5237.2217   -4482.6792    -51.70204    37.476997    37.476997    37.476997            0            0            0   0.82165871 
  140000    52625.905    326.23125     14802.36    5250.1679    2923.9395    8174.1074    19534.842   -1744.7162    3913.4995   -2313.8971    1779.1923    2638.1969    820.44742            0    5237.8366   -4482.6803   -51.713323    37.474271    37.474271    37.474271            0            0            0   0.82183803 
  141000    52614.422    326.23125    14973.756    5250.1679    2925.6239    8175.7918    19665.565   -1743.5881     3913.416   -2312.8536    1779.8332    2638.1969    820.44742            0    5238.4775   -4482.6815    -51.72461    37.471545    37.471545    37.471545            0            0            0    0.8220174 
  142000    52602.941    326.23125     15145.12    5250.1679     2927.313    8177.4809     19796.21   -1742.4576    3913.3087   -2311.8316    1780.5003    2638.1969    820.44742            0    5239.1446   -4482.6827     -51.7359    37.468819    37.468819    37.468819            0            0            0   0.82219682 
  143000    52591.461    326.23125     15316.55    5250.1679    2929.0311     8179.199    19926.878   -1741.3236    3913.2007   -2310.8067    1781.1935    2638.1969    820.44742            0    5239.8377   -4482.6838   -51.747193    37.466093    37.466093    37.466093            0            0            0   0.82237629 
  144000    52579.982    326.23125    15488.463    5250.1679     2930.875    8181.0429    20057.985   -1740.1883    3913.1912    -2309.682    1781.9127    2638.1969    820.44742            0     5240.557    -4482.685    -51.75849    37.463367    37.463367    37.463367            0            0            0   0.82255582 
  145000    52568.506    326.23125    15660.006    5250.1679    2932.6444    8182.8123    20188.677   -1739.0502    3913.0784    -2308.658    1782.6581    2638.1969    820.44742            0    5241.3023   -4482.6862   -51.769789    37.460642    37.460642    37.460642            0            0            0    0.8227354 
  146000    52557.031    326.23125    15831.941    5250.1679    2934.5184    8184.6863    20319.717   -1737.9116    3913.0435   -2307.5554    1783.4295    2638.1969    820.44742            0    5242.0738   -4482.6873   -51.781092    37.457916    37.457916    37.457916            0            0            0   0.82291503 
  147000    52545.557    326.23125    16004.481    5250.1679    2936.5477    8186.7156    20451.318   -1736.7689    3913.1337   -2306.3236     1784.227    2638.1969    820.44742            0    5242.8713   -4482.6885   -51.792399     37.45519     37.45519     37.45519            0            0            0   0.82309471 
  148000    52534.086    326.23125    16176.252    5250.1679     2938.408    8188.5759    20582.105   -1735.6256    3913.0283    -2305.287    1785.0507    2638.1969    820.44742            0     5243.695   -4482.6896   -51.803708    37.452464    37.452464    37.452464            0            0            0   0.82327444 
  149000    52522.616    326.23125    16348.156    5250.1679    2940.3127    8190.4806     20712.98   -1734.4786    3912.9374    -2304.232    1785.9004    2638.1969    820.44742            0    5244.5447   -4482.6908   -51.815021    37.449738    37.449738    37.449738            0            0            0   0.82345423 
  150000    52511.148    326.23125    16520.086    5250.1679    2942.2359    8192.4038    20843.836   -1733.3299    3912.8372   -2303.1847    1786.7763    2638.1969    820.44742            0    5245.4205    -4482.692   -51.826338    37.447012    37.447012    37.447012            0            0            0   0.82363407 
  150518    52505.208    326.23125    16609.629    5250.1679    2943.3504    8193.5183    20912.086   -1732.7341    3912.8925   -2302.5341    1787.2402    2638.1969    820.44742            0    5245.8845   -4482.6926   -51.832201      37.4456      37.4456      37.4456            0            0            0   0.82372725 
Loop time of 401.728 on 48 procs for 100000 steps with 5400 atoms

Performance: 21.507 ns/day, 1.116 hours/ns, 248.925 timesteps/s
70.0% CPU use with 48 MPI tasks x 1 OpenMP threads

MPI task timing breakdown:
Section |  min time  |  avg time  |  max time  |%varavg| %total
---------------------------------------------------------------
Pair    | 166.09     | 209.48     | 252.11     | 123.7 | 52.14
Bond    | 5.8561     | 8.213      | 9.8473     |  25.9 |  2.04
Kspace  | 37.515     | 75.391     | 119.69     | 196.2 | 18.77
Neigh   | 0.029161   | 0.03075    | 0.032077   |   0.6 |  0.01
Comm    | 78.247     | 88.297     | 105.23     |  68.3 | 21.98
Output  | 0.10556    | 0.11605    | 0.13287    |   1.3 |  0.03
Modify  | 0.5407     | 0.6695     | 1.0589     |  15.5 |  0.17
Other   |            | 19.53      |            |       |  4.86

Nlocal:    112.5 ave 132 max 93 min
Histogram: 1 4 2 7 11 11 6 1 4 1
Nghost:    6692.58 ave 6757 max 6607 min
Histogram: 2 0 3 7 7 6 10 2 8 3
Neighs:    81722.1 ave 95823 max 68083 min
Histogram: 2 5 3 5 11 8 8 1 0 5

Total # of neighbors = 3922659
Ave neighs/atom = 726.418
Ave special neighs/atom = 10.4444
Neighbor list builds = 9
Dangerous builds = 0
# >>>>>>>>>  Equilibration run <<<<<<<<<<<<<<<<<<<<<<<<<<<<<<<<<<

fix             NVT_equib all nvt temp ${simulationTemp} ${simulationTemp} 100
fix             NVT_equib all nvt temp 323 ${simulationTemp} 100
fix             NVT_equib all nvt temp 323 323 100

print           "Step Density Temperature Pressure KinEng PotEng TotEng" file Properties_equib_323k.txt
Step Density Temperature Pressure KinEng PotEng TotEng
fix             PRINT_equib all print ${printfreq} "$(v_step) $(v_density) $(v_temp) $(v_press) $(v_pe) $(v_ke) $(v_etotal) $(v_enthalpy)" append Properties_equib_323k.txt title ""
fix             PRINT_equib all print 1000 "$(v_step) $(v_density) $(v_temp) $(v_press) $(v_pe) $(v_ke) $(v_etotal) $(v_enthalpy)" append Properties_equib_323k.txt title ""
# The 'print' and fix print' commands as used above will create a file named 'Properties_equib.txt' which allows you to quickly make plots to test for equilibration


run             ${NVT_equib}
run             100000
Ewald initialization ...
  using 12-bit tables for long-range coulomb (src/kspace.cpp:332)
  G vector (1/distance) = 0.142485
  estimated absolute RMS force accuracy = 0.0338118
  estimated relative force accuracy = 0.000101823
  KSpace vectors: actual max1d max3d = 128 4 364
                  kxmax kymax kzmax  = 4 4 4
Per MPI rank memory allocation (min/avg/max) = 22.51 | 22.56 | 22.89 Mbytes
Step Volume Temp Press KinEng PotEng TotEng Enthalpy E_vdwl E_coul E_pair E_bond E_angle E_dihed E_impro E_mol E_long E_tail Lx Ly Lz Xy Xz Yz Density 
  150518    52505.208    326.23125    16609.746    5250.1679    2943.3341     8193.502    20912.159   -1732.7329    3918.9932   -2302.5513    1787.2411    2638.1969    820.44742            0    5245.8854   -4488.8116   -51.832201      37.4456      37.4456      37.4456            0            0            0   0.82372725 
151000 0.82372724821372100834 322.36439982945097427 1369.4573157863599135 2919.0682655538098516 5187.9371239359998071 8107.0053894898101134 9155.6462380994198611
  151000    52505.208     322.3644    1369.4573    5187.9371    2919.0683    8107.0054    9155.6462   -1832.0722    3915.5208   -2404.1403    1793.2137    2690.8126    839.18224            0    5323.2086   -4487.5889   -51.832201      37.4456      37.4456      37.4456            0            0            0   0.82372725 
152000 0.82372724821372100834 319.32389482347201692 1933.5725863340499018 2776.2447664160399654 5139.005080557830297 7915.2498469738702624 9395.8532760901198344
  152000    52505.208    319.32389    1933.5726    5139.0051    2776.2448    7915.2498    9395.8533   -1854.4436    3906.9373   -2435.8131    1707.5797     2647.354    857.12419            0    5212.0579   -4488.3068   -51.832201      37.4456      37.4456      37.4456            0            0            0   0.82372725 
153000 0.82372724821372100834 319.30388384825397452 463.46739886767198868 2833.3365657883600761 5138.6830360601197754 7972.0196018484703018 8326.9126246897194505
  153000    52505.208    319.30388     463.4674     5138.683    2833.3366    7972.0196    8326.9126   -1887.6966    3946.2835   -2431.7003    1768.1745    2669.2524    827.60994            0    5265.0368   -4490.2872   -51.832201      37.4456      37.4456      37.4456            0            0            0   0.82372725 
154000 0.82372724821372100834 326.48789603971601991 -603.07313833644695933 2815.7720355604101314 5254.2981708784000148 8070.0702064388096915 7608.27623866139038
  154000    52505.208     326.4879   -603.07314    5254.2982     2815.772    8070.0702    7608.2762   -1878.0278    3937.7543   -2429.5958    1784.3053    2644.1312    816.93136            0    5245.3679   -4489.3223   -51.832201      37.4456      37.4456      37.4456            0            0            0   0.82372725 
155000 0.82372724821372100834 321.86407136121897565 -221.55375972884900193 2714.766600695879788 5179.885141037520043 7894.651741733399831 7725.0003623610500654
  155000    52505.208    321.86407   -221.55376    5179.8851    2714.7666    7894.6517    7725.0004   -1904.7222    3921.2656   -2473.0842    1768.9602    2614.1111    804.77949            0    5187.8508   -4489.6276   -51.832201      37.4456      37.4456      37.4456            0            0            0   0.82372725 
156000 0.82372724821372100834 326.29589826914997275 1230.7631553568398886 2870.5294890570298776 5251.20827521325009 8121.7377642702804224 9064.1756955538403417
  156000    52505.208     326.2959    1230.7632    5251.2083    2870.5295    8121.7378    9064.1757   -1828.2509    3928.8983   -2387.5945    1817.3786    2627.7835     812.9619            0     5258.124    -4488.242   -51.832201      37.4456      37.4456      37.4456            0            0            0   0.82372725 
157000 0.82372724821372100834 323.23146293523302575 746.02677893491295436 2782.7470370587798243 5201.891111651940264 7984.6381487107200883 8555.8966651534792618
  157000    52505.208    323.23146    746.02678    5201.8911     2782.747    7984.6381    8555.8967   -1914.7725    3978.7505   -2425.9599    1809.3023    2583.6122     815.7924            0    5208.7069   -4489.9378   -51.832201      37.4456      37.4456      37.4456            0            0            0   0.82372725 
158000 0.82372724821372100834 327.07038098459901221 1142.162370856590087 2820.5446015541101588 5263.6723302808995868 8084.2169318350097456 8958.8101769244094612
  158000    52505.208    327.07038    1142.1624    5263.6723    2820.5446    8084.2169    8958.8102   -1903.6904    4033.7941     -2358.02    1788.7252    2588.2557     801.5836            0    5178.5646   -4488.1236   -51.832201      37.4456      37.4456      37.4456            0            0            0   0.82372725 
159000 0.82372724821372100834 325.78513960766201762 1587.688288171639897 2802.9164100326102016 5242.9884351108503324 8045.9048451434600793 9261.652699891179509
  159000    52505.208    325.78514    1587.6883    5242.9884    2802.9164    8045.9048    9261.6527   -1890.6225    3971.8708   -2407.6014    1757.2643    2624.4072     828.8464            0    5210.5179   -4488.8497   -51.832201      37.4456      37.4456      37.4456            0            0            0   0.82372725 
160000 0.82372724821372100834 319.86970335293398193 277.08436759566598084 2838.8540706642302212 5147.7889919762501449 7986.6430626404799114 8198.8161497623204923
  160000    52505.208     319.8697    277.08437     5147.789    2838.8541    7986.6431    8198.8161   -1882.2099     3971.936   -2397.4404    1832.0328    2586.8613    817.40038            0    5236.2944   -4487.1664   -51.832201      37.4456      37.4456      37.4456            0            0            0   0.82372725 
161000 0.82372724821372100834 328.11383350828998573 -572.18656046640103341 2884.9743269424197933 5280.4650223014396033 8165.4393492438603062 7727.2963027875603075
  161000    52505.208    328.11383   -572.18656     5280.465    2884.9743    8165.4393    7727.2963   -1884.3488    3972.8899   -2397.2914    1845.1839    2616.1592    820.92264            0    5282.2657   -4485.8325   -51.832201      37.4456      37.4456      37.4456            0            0            0   0.82372725 
162000 0.82372724821372100834 322.0723303932629733 -445.44966008715499584 2793.618733381830225 5183.2367355817896168 7976.855468963630301 7635.7592521031301658
  162000    52505.208    322.07233   -445.44966    5183.2367    2793.6187    7976.8555    7635.7593   -1876.3884    3958.6595   -2406.4826      1784.37    2606.1057    809.62561            0    5200.1013   -4488.7536   -51.832201      37.4456      37.4456      37.4456            0            0            0   0.82372725 
163000 0.82372724821372000914 318.87856741529702731 1966.6195789686000808 2848.0981472035200568 5131.8382513595597629 7979.9363985630798197 9485.8450533339091635
  163000    52505.208    318.87857    1966.6196    5131.8383    2848.0981    7979.9364    9485.8451   -1905.1394    3985.3403   -2410.1752    1768.0057    2638.4253    851.84232            0    5258.2734   -4490.3761   -51.832201      37.4456      37.4456      37.4456            0            0            0   0.82372725 
164000 0.82372724821372100834 325.74865880721802114 1294.4736015739599679 2823.5649817579801493 5242.4013352355595998 8065.9663169935502083 9057.1895412659996509
  164000    52505.208    325.74866    1294.4736    5242.4013     2823.565    8065.9663    9057.1895   -1917.0161     4015.641   -2390.0578    1741.7126    2665.7616    806.14864            0    5213.6228   -4488.6827   -51.832201      37.4456      37.4456      37.4456            0            0            0   0.82372725 
165000 0.82372724821372100834 318.62986813223801619 368.89024063185297564 2912.7236153021899554 5127.8358359440899221 8040.5594512462803323 8323.0314717472301709
  165000    52505.208    318.62987    368.89024    5127.8358    2912.7236    8040.5595    8323.0315   -1843.9194    3922.3228   -2410.9476    1831.8277    2651.7054    840.13814            0    5323.6712   -4489.3509   -51.832201      37.4456      37.4456      37.4456            0            0            0   0.82372725 
166000 0.82372724821372100834 320.63810654196299765 1837.473959194039935 2860.2938906529598171 5160.1552068331702685 8020.4490974861300856 9427.4664828807799495
  166000    52505.208    320.63811     1837.474    5160.1552    2860.2939    8020.4491    9427.4665    -1874.033    3968.1482   -2395.7672    1733.8227    2704.7627    817.47568            0    5256.0611   -4489.8824   -51.832201      37.4456      37.4456      37.4456            0            0            0   0.82372725 
167000 0.82372724821372100834 317.71123868557998549 -320.70060427938699377 2893.9758105927799079 5113.0519708151296072 8007.0277814079099699 7761.4562327773201105
  167000    52505.208    317.71124    -320.7006     5113.052    2893.9758    8007.0278    7761.4562   -1870.3881     3963.072   -2397.3888    1783.0955    2700.4665    807.80259            0    5291.3646   -4490.0727   -51.832201      37.4456      37.4456      37.4456            0            0            0   0.82372725 
168000 0.82372724821372100834 329.44464679538498331 1450.5213734508699872 2848.9060493223000776 5301.8823241523796241 8150.7883734746801565 9261.502775776789349
  168000    52505.208    329.44465    1450.5214    5301.8823     2848.906    8150.7884    9261.5028   -1838.7416    3903.0366   -2426.2939    1823.9063    2637.8225    813.47111            0       5275.2    -4490.589   -51.832201      37.4456      37.4456      37.4456            0            0            0   0.82372725 
169000 0.82372724821372100834 328.46801793991397744 484.77927397432597445 2804.5834991945098409 5286.16505171694007 8090.7485509114603701 8461.9608138923395018
  169000    52505.208    328.46802    484.77927    5286.1651    2804.5835    8090.7486    8461.9608   -1932.6621    3981.9251   -2440.0117    1748.9041    2685.0185    810.67262            0    5244.5952   -4489.2747   -51.832201      37.4456      37.4456      37.4456            0            0            0   0.82372725 
170000 0.82372724821372100834 327.13891144522000332 144.9451483214309917 2825.6996511163501964 5264.7752179476601668 8090.4748690640099085 8201.4643840970893507
  170000    52505.208    327.13891    144.94515    5264.7752    2825.6997    8090.4749    8201.4644   -1867.0123    3927.1462   -2429.3295    1794.3427    2644.1045    816.58191            0    5255.0291   -4489.4634   -51.832201      37.4456      37.4456      37.4456            0            0            0   0.82372725 
171000 0.82372724821372100834 317.68431134706497687 148.87323504364400151 2835.6993647064700781 5112.6186185615797513 7948.3179832680498293 8062.3153702123699986
  171000    52505.208    317.68431    148.87324    5112.6186    2835.6994     7948.318    8062.3154    -1874.596    3965.3071   -2399.1796    1789.6249    2622.4218    822.83221            0    5234.8789   -4489.8907   -51.832201      37.4456      37.4456      37.4456            0            0            0   0.82372725 
172000 0.82372724821372100834 327.26121998168702021 33.529090231946298672 2830.4014723412301464 5266.7435773485503887 8097.1450496897696212 8122.8194341547996373
  172000    52505.208    327.26122     33.52909    5266.7436    2830.4015     8097.145    8122.8194   -1897.5434    3957.3866   -2429.2842    1800.6407    2653.6737    805.37131            0    5259.6857   -4489.1274   -51.832201      37.4456      37.4456      37.4456            0            0            0   0.82372725 
173000 0.82372724821372100834 326.88408669173799126 391.49330121746601208 2771.2858725411601881 5260.674222926550101 8031.9600954677098343 8331.7400615033202484
  173000    52505.208    326.88409     391.4933    5260.6742    2771.2859    8031.9601    8331.7401   -1854.5569    3898.0334   -2445.2244     1774.933    2616.7167    824.86052            0    5216.5102   -4488.7009   -51.832201      37.4456      37.4456      37.4456            0            0            0   0.82372725 
174000 0.82372724821372100834 321.28854366305898793 964.77036451636502079 2786.2967348848601432 5170.6229473439398134 7956.9196822288004114 8695.677730469909875
  174000    52505.208    321.28854    964.77036    5170.6229    2786.2967    7956.9197    8695.6777    -1837.548    3930.4642   -2395.8363    1760.5628    2640.2226    781.34759            0    5182.1331   -4488.7525   -51.832201      37.4456      37.4456      37.4456            0            0            0   0.82372725 
175000 0.82372724821372100834 322.05892832887997201 -506.96345910012399827 2894.1995106908398157 5183.0210508865002339 8077.2205615773400496 7689.0211004940601924
  175000    52505.208    322.05893   -506.96346    5183.0211    2894.1995    8077.2206    7689.0211   -1855.6541    3939.3676   -2405.4403    1798.6741    2690.6747    810.29097            0    5299.6398   -4489.1539   -51.832201      37.4456      37.4456      37.4456            0            0            0   0.82372725 
176000 0.82372724821372100834 319.45448491949400704 -443.48800539657599984 2809.375050987549912 5141.1067183550803747 7950.4817693426302867 7610.8876593500799572
  176000    52505.208    319.45448   -443.48801    5141.1067    2809.3751    7950.4818    7610.8877   -1849.6077     3906.282   -2430.9306    1761.7544    2669.8153    808.73591            0    5240.3057   -4487.6049   -51.832201      37.4456      37.4456      37.4456            0            0            0   0.82372725 
177000 0.82372724821372100834 327.639964274286001 -432.51069244858399543 2868.316383975539793 5272.8388582700399638 8141.1552422455797569 7809.9668405818301835
  177000    52505.208    327.63996   -432.51069    5272.8389    2868.3164    8141.1552    7809.9668   -1883.4135     3933.439    -2438.271    1803.4015     2661.715     841.4709            0    5306.5874   -4488.2965   -51.832201      37.4456      37.4456      37.4456            0            0            0   0.82372725 
178000 0.82372724821372100834 321.88279161536502215 374.52980134992100147 2807.8924820944198473 5180.1864134531697346 7988.0788955475900366 8274.8693228137708502
  178000    52505.208    321.88279     374.5298    5180.1864    2807.8925    7988.0789    8274.8693   -1846.0065    3882.3099   -2452.3765    1813.2662    2586.9544    860.04836            0    5260.2689   -4488.6799   -51.832201      37.4456      37.4456      37.4456            0            0            0   0.82372725 
179000 0.82372724821372100834 325.15731960107501664 -96.491238762921497596 2940.5359859565801344 5232.8846807228201214 8173.4206666793897966 8099.533986654149885
  179000    52505.208    325.15732   -96.491239    5232.8847     2940.536    8173.4207     8099.534   -1854.2738     3946.529   -2397.1691    1781.3686     2722.548    833.78844            0     5337.705   -4489.4243   -51.832201      37.4456      37.4456      37.4456            0            0            0   0.82372725 
180000 0.82372724821372100834 320.67143627210299428 103.75113652605199377 2785.8828644444502061 5160.6915952942399599 7946.574459738690166 8026.020294666670452
  180000    52505.208    320.67144    103.75114    5160.6916    2785.8829    7946.5745    8026.0203   -1905.9915    3955.8172   -2436.6713    1751.4841    2689.3681    781.70193            0    5222.5542   -4486.4971   -51.832201      37.4456      37.4456      37.4456            0            0            0   0.82372725 
181000 0.82372724821372100834 320.2827140301699842 1079.2210738529299761 2840.3471624756298297 5154.4357353081795736 7994.7828977838098581 8821.1798140488899662
  181000    52505.208    320.28271    1079.2211    5154.4357    2840.3472    7994.7829    8821.1798   -1859.1288    3905.8108    -2440.257    1849.0529    2613.2621    818.28915            0    5280.6041    -4486.939   -51.832201      37.4456      37.4456      37.4456            0            0            0   0.82372725 
182000 0.82372724821372100834 320.0977406138420065 1051.5173183528800109 2714.1749641530800545 5151.4588853395798651 7865.6338494926503699 8670.8170416479297273
  182000    52505.208    320.09774    1051.5173    5151.4589     2714.175    7865.6338     8670.817    -1876.932    3934.4506   -2429.5543    1784.8299    2564.7806    794.11868            0    5143.7292   -4487.0729   -51.832201      37.4456      37.4456      37.4456            0            0            0   0.82372725 
183000 0.82372724821372100834 325.21871126522597706 476.84907977158701442 2819.9574323612901026 5233.8726809291601967 8053.8301132904498445 8418.969952193170684
  183000    52505.208    325.21871    476.84908    5233.8727    2819.9574    8053.8301      8418.97   -1856.1563    3897.6644   -2445.9657     1785.805    2676.1007    804.01743            0    5265.9232   -4487.4738   -51.832201      37.4456      37.4456      37.4456            0            0            0   0.82372725 
184000 0.82372724821372100834 323.69405352530202435 1233.8766494828601026 2887.4854930787500962 5209.3357640288004404 8096.8212571075500819 9041.6432985673200164
  184000    52505.208    323.69405    1233.8766    5209.3358    2887.4855    8096.8213    9041.6433    -1876.026    3950.7359   -2412.7558    1817.3545     2672.523     810.3638            0    5300.2413   -4487.4657   -51.832201      37.4456      37.4456      37.4456            0            0            0   0.82372725 
185000 0.82372724821372100834 319.30470579983500556 1573.8711138459400445 2832.2529583110699605 5138.696264050319769 7970.9492223613897295 9176.1167886669190921
  185000    52505.208    319.30471    1573.8711    5138.6963     2832.253    7970.9492    9176.1168   -1874.8067    3928.4082   -2433.2564    1793.1899    2650.9938    821.32568            0    5265.5093   -4486.8579   -51.832201      37.4456      37.4456      37.4456            0            0            0   0.82372725 
186000 0.82372724821372100834 322.47054949584401129 627.30710032524802955 2720.8155160866399456 5189.6454322829004013 7910.4609483695303425 8390.8116993136591191
  186000    52505.208    322.47055     627.3071    5189.6454    2720.8155    7910.4609    8390.8117   -1867.0821    3894.0033   -2458.9153    1787.4075    2596.7708     795.5526            0    5179.7309   -4485.8366   -51.832201      37.4456      37.4456      37.4456            0            0            0   0.82372725 
187000 0.82372724821372100834 321.75157422265601781 1871.6665446302399687 2816.4398434668901245 5178.0746803235097104 7994.514523790399835 9427.7143548842705059
[...]
253000 0.82372724821372100834 322.08303047702599997 1131.4938086397899042 2796.623488385930159 5183.4089362398399317 7980.0324246257696359 8846.4563825037294009
  253000    52505.208    322.08303    1131.4938    5183.4089    2796.6235    7980.0324    8846.4564   -1830.3881    3879.2196   -2439.0753    1848.2577    2582.1716    805.26942            0    5235.6988   -4487.9067   -51.832201      37.4456      37.4456      37.4456            0            0            0   0.82372725 
254000 0.82372724821372100834 326.22480745805802371 1084.940016892129961 2917.1316082456201002 5250.0641828189600346 8167.1957910645796801 8997.9718998847401963
254000 0.82372724821372100834 326.22480745805802371 1084.940016892129961 2917.1316082456201002 5250.0641828189600346 8167.1957910645796801 8997.9718998847401963
  254000    52505.208    326.22481      1084.94    5250.0642    2917.1316    8167.1958    8997.9719   -1884.3277    3905.3164   -2468.8331    1828.9861    2732.1608    824.81787            0    5385.9647   -4489.8218   -51.832201      37.4456      37.4456      37.4456            0            0            0   0.82372725 
255000 0.82372724821372100834 320.50633907322401228 1333.4413264650199835 2912.4613633258099981 5158.0346211135401973 8070.4959844393497406 9091.5581439068591862
255000 0.82372724821372100834 320.50633907322401228 1333.4413264650199835 2912.4613633258099981 5158.0346211135401973 8070.4959844393497406 9091.5581439068591862
  255000    52505.208    320.50634    1333.4413    5158.0346    2912.4614     8070.496    9091.5581   -1887.7643    3974.9431   -2402.3475    1809.9968     2703.323    801.48898            0    5314.8088   -4489.5263   -51.832201      37.4456      37.4456      37.4456            0            0            0   0.82372725 
256000 0.82372724821372100834 330.87000644367600444 1028.0262275047600724 2683.6457587890199648 5324.8211977942701196 8008.4669565833000888 8795.6622077069096122
256000 0.82372724821372100834 330.87000644367600444 1028.0262275047600724 2683.6457587890199648 5324.8211977942701196 8008.4669565833000888 8795.6622077069096122
  256000    52505.208    330.87001    1028.0262    5324.8212    2683.6458     8008.467    8795.6622   -1860.6984    3903.6891   -2447.2741    1777.3066    2562.6233    790.98988            0    5130.9198   -4490.2648   -51.832201      37.4456      37.4456      37.4456            0            0            0   0.82372725 
257000 0.82372724821372100834 322.89929376483701162 -540.41000348261195541 2756.2149076077898826 5196.5453824975002135 7952.7602901052896414 7538.9496527699202488
257000 0.82372724821372100834 322.89929376483701162 -540.41000348261195541 2756.2149076077898826 5196.5453824975002135 7952.7602901052896414 7538.9496527699202488
  257000    52505.208    322.89929      -540.41    5196.5454    2756.2149    7952.7603    7538.9497   -1898.3244    3900.0181   -2487.9299    1781.6768    2663.1023    799.36578            0    5244.1448   -4489.6236   -51.832201      37.4456      37.4456      37.4456            0            0            0   0.82372725 
258000 0.82372724821372100834 323.12448156218499662 568.21784896184601621 2733.2359500105499137 5200.169418322599995 7933.405368333140359 8368.5094350767794822
258000 0.82372724821372100834 323.12448156218499662 568.21784896184601621 2733.2359500105499137 5200.169418322599995 7933.405368333140359 8368.5094350767794822
  258000    52505.208    323.12448    568.21785    5200.1694     2733.236    7933.4054    8368.5094   -1866.6799    3892.7179   -2462.5822    1754.2482    2649.3745    792.19555            0    5195.8182   -4488.6202   -51.832201      37.4456      37.4456      37.4456            0            0            0   0.82372725 
259000 0.82372724821372100834 322.31074150240601739 1070.3353121778300192 2858.492288558240034 5187.0735793664498487 8045.5658679246898828 8865.1586490363097255
259000 0.82372724821372100834 322.31074150240601739 1070.3353121778300192 2858.492288558240034 5187.0735793664498487 8045.5658679246898828 8865.1586490363097255
  259000    52505.208    322.31074    1070.3353    5187.0736    2858.4923    8045.5659    8865.1586    -1837.666    3935.9583   -2390.6264    1809.8819    2652.3215    786.91535            0    5249.1187   -4488.9187   -51.832201      37.4456      37.4456      37.4456            0            0            0   0.82372725 
260000 0.82372724821372100834 321.14143194369597722 -668.2449058311490262 2837.8738595560298563 5168.2554205616497711 8006.1292801176896319 7494.4310350888199537
260000 0.82372724821372100834 321.14143194369597722 -668.2449058311490262 2837.8738595560298563 5168.2554205616497711 8006.1292801176896319 7494.4310350888199537
  260000    52505.208    321.14143   -668.24491    5168.2554    2837.8739    8006.1293     7494.431   -1868.2172     3893.447   -2464.5566    1856.7598    2664.2188    781.45189            0    5302.4305   -4489.7864   -51.832201      37.4456      37.4456      37.4456            0            0            0   0.82372725 
261000 0.82372724821372100834 328.30098573376199056 1513.1037444136200065 2806.2964355534199967 5283.4769367028602574 8089.7733722562797993 9248.4092612946806184
261000 0.82372724821372100834 328.30098573376199056 1513.1037444136200065 2806.2964355534199967 5283.4769367028602574 8089.7733722562797993 9248.4092612946806184
  261000    52505.208    328.30099    1513.1037    5283.4769    2806.2964    8089.7734    9248.4093   -1867.8598    3921.9697    -2435.131    1795.7056    2655.8494    789.87244            0    5241.4275   -4489.2409   -51.832201      37.4456      37.4456      37.4456            0            0            0   0.82372725 
262000 0.82372724821372100834 326.80865961816101617 1242.4633831654400637 2675.7602471934501409 5259.4603453539402835 7935.2205925473899697 8886.6177930806807126
262000 0.82372724821372100834 326.80865961816101617 1242.4633831654400637 2675.7602471934501409 5259.4603453539402835 7935.2205925473899697 8886.6177930806807126
  262000    52505.208    326.80866    1242.4634    5259.4603    2675.7602    7935.2206    8886.6178   -1877.2671    3903.2046   -2462.5988    1794.6684    2553.6638    790.02682            0     5138.359   -4488.5362   -51.832201      37.4456      37.4456      37.4456            0            0            0   0.82372725 
263000 0.82372724821372100834 324.50968921106698417 855.4639381466560053 2818.9581529670999771 5222.4621100397898772 8041.4202630069003135 8696.4785986790193419
263000 0.82372724821372100834 324.50968921106698417 855.4639381466560053 2818.9581529670999771 5222.4621100397898772 8041.4202630069003135 8696.4785986790193419
  263000    52505.208    324.50969    855.46394    5222.4621    2818.9582    8041.4203    8696.4786   -1884.4715    3914.6919   -2460.1591    1807.3933    2641.1131    830.61095            0    5279.1173   -4490.3795   -51.832201      37.4456      37.4456      37.4456            0            0            0   0.82372725 
264000 0.82372724821372100834 327.35289993612900616 427.19887046204399894 2719.5867866368498653 5268.2190189277698664 7987.8058055646197317 8314.9267613493193494
264000 0.82372724821372100834 327.35289993612900616 427.19887046204399894 2719.5867866368498653 5268.2190189277698664 7987.8058055646197317 8314.9267613493193494
  264000    52505.208     327.3529    427.19887     5268.219    2719.5868    7987.8058    8314.9268   -1890.0574     3965.013   -2414.0111    1727.0599    2605.8012    800.73683            0    5133.5979   -4488.9667   -51.832201      37.4456      37.4456      37.4456            0            0            0   0.82372725 
265000 0.82372724821372100834 324.36183673766299762 -80.217630884345197728 2678.3121855234398936 5220.082662011280263 7898.3948475347197018 7836.9694321133501944
265000 0.82372724821372100834 324.36183673766299762 -80.217630884345197728 2678.3121855234398936 5220.082662011280263 7898.3948475347197018 7836.9694321133501944
  265000    52505.208    324.36184   -80.217631    5220.0827    2678.3122    7898.3948    7836.9694   -1918.6216    3937.9592   -2470.9698    1786.1107    2596.2079    766.96334            0     5149.282   -4490.3074   -51.832201      37.4456      37.4456      37.4456            0            0            0   0.82372725 
266000 0.82372724821372100834 328.12527186727697881 660.97485772588299824 2760.8085979210300138 5280.6491043131500192 8041.457702234180033 8547.5890198921406409
266000 0.82372724821372100834 328.12527186727697881 660.97485772588299824 2760.8085979210300138 5280.6491043131500192 8041.457702234180033 8547.5890198921406409
  266000    52505.208    328.12527    660.97486    5280.6491    2760.8086    8041.4577     8547.589   -1882.0686    3912.6536   -2458.5871    1791.1034    2613.7522    814.54016            0    5219.3957   -4489.1722   -51.832201      37.4456      37.4456      37.4456            0            0            0   0.82372725 
267000 0.82372724821372100834 321.44120279410202556 -485.24274374364699725 2707.6329092118999142 5173.0797508050700344 7880.7126600169704034 7509.1455021981000755
267000 0.82372724821372100834 321.44120279410202556 -485.24274374364699725 2707.6329092118999142 5173.0797508050700344 7880.7126600169704034 7509.1455021981000755
  267000    52505.208     321.4412   -485.24274    5173.0798    2707.6329    7880.7127    7509.1455   -1921.2411    3946.8179   -2463.5528    1731.5802     2627.088    812.51746            0    5171.1857   -4489.1295   -51.832201      37.4456      37.4456      37.4456            0            0            0   0.82372725 
268000 0.82372724821372100834 323.76507534531901911 647.23670371999696727 2780.0920556239498183 5210.4787461225796505 7990.5708017465303783 8486.1823395552091824
268000 0.82372724821372100834 323.76507534531901911 647.23670371999696727 2780.0920556239498183 5210.4787461225796505 7990.5708017465303783 8486.1823395552091824
  268000    52505.208    323.76508     647.2367    5210.4787    2780.0921    7990.5708    8486.1823   -1882.1536    3964.0338    -2407.548    1760.5566    2634.6431    792.44037            0    5187.6401   -4489.4283   -51.832201      37.4456      37.4456      37.4456            0            0            0   0.82372725 
269000 0.82372724821372100834 325.54270392089597408 -211.84006915522999748 2769.3956487422101418 5239.0868222149902067 8008.4824709572003485 7846.2692005414601226
269000 0.82372724821372100834 325.54270392089597408 -211.84006915522999748 2769.3956487422101418 5239.0868222149902067 8008.4824709572003485 7846.2692005414601226
  269000    52505.208     325.5427   -211.84007    5239.0868    2769.3956    8008.4825    7846.2692   -1901.3253    3919.4371    -2471.628    1773.5396     2667.104    800.38004            0    5241.0236   -4489.7398   -51.832201      37.4456      37.4456      37.4456            0            0            0   0.82372725 
270000 0.82372724821372100834 322.94763125692202266 1487.3730562843500138 2847.2179957401099273 5197.3232967764897694 8044.5412925166001514 9183.4743033972408739
270000 0.82372724821372100834 322.94763125692202266 1487.3730562843500138 2847.2179957401099273 5197.3232967764897694 8044.5412925166001514 9183.4743033972408739
  270000    52505.208    322.94763    1487.3731    5197.3233     2847.218    8044.5413    9183.4743   -1868.5529    3936.7774   -2421.2653    1789.6938     2683.347    795.44249            0    5268.4833   -4489.4898   -51.832201      37.4456      37.4456      37.4456            0            0            0   0.82372725 
271000 0.82372724821372100834 320.76398818807399493 1276.6722012143800384 2688.2262182979598037 5162.1810696934198859 7850.4072879913801444 8827.9993640971006243
271000 0.82372724821372100834 320.76398818807399493 1276.6722012143800384 2688.2262182979598037 5162.1810696934198859 7850.4072879913801444 8827.9993640971006243
  271000    52505.208    320.76399    1276.6722    5162.1811    2688.2262    7850.4073    8827.9994   -1899.5486    3950.5888    -2438.038    1744.4826     2585.835    795.94664            0    5126.2643   -4489.0783   -51.832201      37.4456      37.4456      37.4456            0            0            0   0.82372725 
272000 0.82372724821372100834 320.59833746901898621 2285.6296419030700235 2740.705500625500008 5159.5151874947596298 7900.2206881202600925 9650.4063855227595923
272000 0.82372724821372100834 320.59833746901898621 2285.6296419030700235 2740.705500625500008 5159.5151874947596298 7900.2206881202600925 9650.4063855227595923
  272000    52505.208    320.59834    2285.6296    5159.5152    2740.7055    7900.2207    9650.4064   -1837.8371    3894.1051   -2432.8546    1780.9828    2617.3479    775.22941            0    5173.5601   -4489.1226   -51.832201      37.4456      37.4456      37.4456            0            0            0   0.82372725 
273000 0.82372724821372100834 323.53110081979400547 11.927901553981200777 2770.6164068261800821 5206.7133020236997254 7977.3297088498902667 7986.4633157637399563
273000 0.82372724821372100834 323.53110081979400547 11.927901553981200777 2770.6164068261800821 5206.7133020236997254 7977.3297088498902667 7986.4633157637399563
  273000    52505.208     323.5311    11.927902    5206.7133    2770.6164    7977.3297    7986.4633   -1841.1999    3870.6707   -2459.6782    1792.8055     2624.126    813.36313            0    5230.2946    -4489.149   -51.832201      37.4456      37.4456      37.4456            0            0            0   0.82372725 
274000 0.82372724821372100834 326.37878692244402146 375.83959517511402737 2760.8720781528299995 5252.5422349240698168 8013.4143130768998162 8301.2076947926507273
274000 0.82372724821372100834 326.37878692244402146 375.83959517511402737 2760.8720781528299995 5252.5422349240698168 8013.4143130768998162 8301.2076947926507273
  274000    52505.208    326.37879     375.8396    5252.5422    2760.8721    8013.4143    8301.2077   -1913.2759    3961.2822    -2441.207    1733.5168    2695.0126    773.54963            0    5202.0791   -4489.2133   -51.832201      37.4456      37.4456      37.4456            0            0            0   0.82372725 
275000 0.82372724821372100834 324.26264312371398546 -403.41242940184400823 2772.3389032793697879 5218.4863001532803537 7990.8252034326496869 7681.9183485558396569
275000 0.82372724821372100834 324.26264312371398546 -403.41242940184400823 2772.3389032793697879 5218.4863001532803537 7990.8252034326496869 7681.9183485558396569
  275000    52505.208    324.26264   -403.41243    5218.4863    2772.3389    7990.8252    7681.9183   -1880.0725     3913.872   -2455.2194    1790.1217    2648.2659    789.17068            0    5227.5583   -4489.0189   -51.832201      37.4456      37.4456      37.4456            0            0            0   0.82372725 
276000 0.82372724821372100834 326.64203299235902023 910.84561206238504383 2802.5568761324998377 5256.7787575040001684 8059.3356336364995514 8756.801633178789416
276000 0.82372724821372100834 326.64203299235902023 910.84561206238504383 2802.5568761324998377 5256.7787575040001684 8059.3356336364995514 8756.801633178789416
  276000    52505.208    326.64203    910.84561    5256.7788    2802.5569    8059.3356    8756.8016   -1863.5273     3905.268   -2446.9807    1826.5412    2658.2025    764.79381            0    5249.5376   -4488.7214   -51.832201      37.4456      37.4456      37.4456            0            0            0   0.82372725 
277000 0.82372724821372100834 320.11078466431200695 305.12644158167302066 2693.4483670167401215 5151.6688083761000598 7845.1171753928501857 8078.7630487946798894
277000 0.82372724821372100834 320.11078466431200695 305.12644158167302066 2693.4483670167401215 5151.6688083761000598 7845.1171753928501857 8078.7630487946798894
  277000    52505.208    320.11078    305.12644    5151.6688    2693.4484    7845.1172     8078.763   -1845.5658    3855.8391   -2479.4184     1719.176     2656.438     797.2528            0    5172.8668   -4489.6918   -51.832201      37.4456      37.4456      37.4456            0            0            0   0.82372725 
278000 0.82372724821372100834 316.04165488771201353 1280.8368414319500062 2897.3856656957500491 5086.1827018416797728 7983.5683675374302766 8964.3494527503007703
278000 0.82372724821372100834 316.04165488771201353 1280.8368414319500062 2897.3856656957500491 5086.1827018416797728 7983.5683675374302766 8964.3494527503007703
  278000    52505.208    316.04165    1280.8368    5086.1827    2897.3857    7983.5684    8964.3495   -1870.4415    3963.2722   -2396.6728     1795.458    2713.9905    784.60991            0    5294.0584   -4489.5035   -51.832201      37.4456      37.4456      37.4456            0            0            0   0.82372725 
279000 0.82372724821372100834 323.05733620908097237 662.32053084723497705 2702.4166341307200128 5199.0888217360898125 7901.5054558668098252 8408.6672019927900692
279000 0.82372724821372100834 323.05733620908097237 662.32053084723497705 2702.4166341307200128 5199.0888217360898125 7901.5054558668098252 8408.6672019927900692
  279000    52505.208    323.05734    662.32053    5199.0888    2702.4166    7901.5055    8408.6672   -1883.9977    3893.7119    -2480.036    1779.9559    2605.5995    796.89726            0    5182.4526   -4489.7502   -51.832201      37.4456      37.4456      37.4456            0            0            0   0.82372725 
280000 0.82372724821372100834 316.65781333438900447 956.46076897220200408 2748.9024547492999773 5096.0987821577200521 7845.0012369070200293 8577.3963403359193762
280000 0.82372724821372100834 316.65781333438900447 956.46076897220200408 2748.9024547492999773 5096.0987821577200521 7845.0012369070200293 8577.3963403359193762
  280000    52505.208    316.65781    956.46077    5096.0988    2748.9025    7845.0012    8577.3963   -1869.3871    3903.1984   -2456.2244    1714.2098    2726.9034     764.0136            0    5205.1269   -4490.0358   -51.832201      37.4456      37.4456      37.4456            0            0            0   0.82372725 
  280518    52505.208    326.84197    515.09412    5259.9964    2680.2099    7940.2063    8334.6317   -1884.6106    3911.5475   -2462.4716    1733.0189     2634.816    774.84661            0    5142.6816   -4489.4086   -51.832201      37.4456      37.4456      37.4456            0            0            0   0.82372725 
Loop time of 135.928 on 48 procs for 30000 steps with 5400 atoms

Performance: 19.069 ns/day, 1.259 hours/ns, 220.706 timesteps/s
69.4% CPU use with 48 MPI tasks x 1 OpenMP threads

MPI task timing breakdown:
Section |  min time  |  avg time  |  max time  |%varavg| %total
---------------------------------------------------------------
Pair    | 53.011     | 59.151     | 64.278     |  36.0 | 43.52
Bond    | 1.9933     | 2.4738     | 2.9479     |  10.7 |  1.82
Kspace  | 15.818     | 21.036     | 27.914     |  63.5 | 15.48
Neigh   | 12.711     | 13.178     | 13.648     |   8.4 |  9.69
Comm    | 27.788     | 30.948     | 35.869     |  32.6 | 22.77
Output  | 0.17252    | 0.17275    | 0.17295    |   0.0 |  0.13
Modify  | 2.049      | 5.3588     | 7.4584     |  54.0 |  3.94
Other   |            | 3.609      |            |       |  2.66

Nlocal:    112.5 ave 130 max 96 min
Histogram: 2 3 5 6 7 12 5 6 0 2
Nghost:    6677.12 ave 6723 max 6631 min
Histogram: 1 1 5 7 14 5 6 4 3 2
Neighs:    81800.5 ave 95700 max 71021 min
Histogram: 4 2 10 5 10 7 1 6 2 1

Total # of neighbors = 3926425
Ave neighs/atom = 727.116
Ave special neighs/atom = 10.4444
Neighbor list builds = 3482
Dangerous builds = 0

write_data      restart.${NAME}.final.data
write_data      restart.octanol_323k.final.data
Ewald initialization ...
  using 12-bit tables for long-range coulomb (src/kspace.cpp:332)
  G vector (1/distance) = 0.142485
  estimated absolute RMS force accuracy = 0.0338118
  estimated relative force accuracy = 0.000101823
  KSpace vectors: actual max1d max3d = 128 4 364
                  kxmax kymax kzmax  = 4 4 4
Total wall time: 0:20:52
