
variable        infile index octanol.data   # The name of the (edited) data file

#>>>>>> Simulation settings <<<<<<<

units		 real		#angstroms = length -
atom_style	 full		#How the atoms are defined in the input data file
boundary        p p p           #periodic box in x, y and z
pair_style	 lj/cut/coul/long 14.0    #'lj/cut/coul/long 12.0' for your ethanol simulation
pair_modify     tail yes            #Tail corrections
pair_modify     mix arithmetic      #Lorentz-Berthelot pair interactions between dissimilar atom

# The settings below are additional settings you must add for your ethanol simulation as already detailed in your example NPT LAMMPS script in the tutorial
# For your ethanol homework, change/edit the pair_style line as advised above and uncomment the extra settings below and you should be good to go for this section.

special_bonds   lj/coul 0.0 0.0 0.5
kspace_style    ewald 0.0001
bond_style      harmonic
angle_style     harmonic
dihedral_style  opls


# >>> Using the variable command in LAMMPS to define inputs/settings for the simulation <<<<<<

variable   simulationTemp  index 293     #Simulation temperature
variable   simulationPress equal 0.987	#Simulation pressure

# Output files frequencies
variable        dumpfreq   index 1000          #Output frequency of dump information to dump
variable        thermofreq index 1000          #Output frequency of property information to log
variable        printfreq  index 1000          #Output frequency of information to be printed
variable        restartfreq index 1000000      #Output frequency of restart files


# Simulation run times (equilibration and production)
variable        NVT_equib  index 100000       # Equilibration run length (in timesteps)
variable        NVT_prod   index 30000       # Simulation run length  (in timesteps)


# Defining properties to output
# The first expression after the 'variable' command is a user defined name for the variable, it can be anything
# The expression after the 'equal' keyword are LAMMPS special/reserved terms for those property

variable    step        equal step
variable    density     equal density
variable    temp        equal temp
variable    press       equal press
variable    ke          equal ke
variable    pe          equal pe
variable    etotal      equal etotal
variable    enthalpy    equal enthalpy


# >>>>>>>>>>> Reading data, Neighbor list settings, energy minimization, assigning initial velocities & specifying thermodynamic property output style to log files <<<<<<<<<

read_data	${infile}
read_data	octanol.data
  orthogonal box = (0 0 0) to (40 40 40)
  3 by 4 by 4 MPI processor grid
  reading atoms ...
  5400 atoms
  scanning bonds ...
  1 = max bonds/atom
  scanning angles ...
  6 = max angles/atom
  scanning dihedrals ...
  10 = max dihedrals/atom
  reading bonds ...
  5200 bonds
  reading angles ...
  9800 angles
  reading dihedrals ...
  13200 dihedrals
  4 = max # of 1-2 neighbors
  6 = max # of 1-3 neighbors
  12 = max # of 1-4 neighbors
  16 = max # of special neighbors
  special bonds CPU = 0.0228433 secs
  read_data CPU = 0.0897261 secs
neighbor        1.0 bin
neigh_modify    delay 0 every 1 check yes page 1000000 one 20000
timestep        1.0

minimize        1e-4 1e-6 10000 100000        #Energy minimize before creating velocities
Ewald initialization ...
  using 12-bit tables for long-range coulomb (src/kspace.cpp:332)
  G vector (1/distance) = 0.140701
  estimated absolute RMS force accuracy = 0.0347754
  estimated relative force accuracy = 0.000104725
  KSpace vectors: actual max1d max3d = 128 4 364
                  kxmax kymax kzmax  = 4 4 4
Neighbor list info ...
  update every 1 steps, delay 0 steps, check yes
  max neighbors/atom: 20000, page size: 1000000
  master list distance cutoff = 15
  ghost atom cutoff = 15
  binsize = 7.5, bins = 6 6 6
  1 neighbor lists, perpetual/occasional/extra = 1 0 0
  (1) pair lj/cut/coul/long, perpetual
      attributes: half, newton on
      pair build: half/bin/newton
      stencil: half/bin/3d/newton
      bin: standard
Per MPI rank memory allocation (min/avg/max) = 23.62 | 23.67 | 23.84 Mbytes
Step Temp E_pair E_mol TotEng Press 
       0            0     3405.817    1701.0249    5106.8419    4097.4389 
     518            0   -2313.0078    889.32797   -1423.6798   -1232.5021 
Loop time of 6.23456 on 48 procs for 518 steps with 5400 atoms

59.8% CPU use with 48 MPI tasks x 1 OpenMP threads

Minimization stats:
  Stopping criterion = energy tolerance
  Energy initial, next-to-last, final = 
         5106.84193569     -1423.57203144     -1423.67981613
  Force two-norm initial, final = 3350.81 23.069
  Force max component initial, final = 845.808 2.76546
  Final line search alpha, max atom move = 0.0129189 0.0357266
  Iterations, force evaluations = 518 1030

MPI task timing breakdown:
Section |  min time  |  avg time  |  max time  |%varavg| %total
---------------------------------------------------------------
Pair    | 1.0827     | 2.436      | 3.8374     |  43.6 | 39.07
Bond    | 0.056307   | 0.089054   | 0.12483    |   5.4 |  1.43
Kspace  | 0.44626    | 1.8336     | 3.1906     |  50.2 | 29.41
Neigh   | 0.13142    | 0.13297    | 0.13537    |   0.3 |  2.13
Comm    | 0.95337    | 1.0691     | 1.2346     |   6.1 | 17.15
Output  | 0          | 0          | 0          |   0.0 |  0.00
Modify  | 0          | 0          | 0          |   0.0 |  0.00
Other   |            | 0.6739     |            |       | 10.81

Nlocal:    112.5 ave 146 max 70 min
Histogram: 4 4 2 3 3 11 4 6 6 5
Nghost:    5652.17 ave 5831 max 5357 min
Histogram: 15 1 0 0 0 0 0 0 11 21
Neighs:    69014.7 ave 109982 max 28120 min
Histogram: 2 3 6 7 7 4 8 5 3 3

Total # of neighbors = 3312706
Ave neighs/atom = 613.464
Ave special neighs/atom = 10.4444
Neighbor list builds = 39
Dangerous builds = 0
#velocity	all create ${simulationTemp} 886874 mom yes rot yes dist gaussian

velocity        all create  ${simulationTemp} 317879265 units box
velocity        all create  293 317879265 units box
velocity        all zero linear units box

# The 'velocity' command line above assigns initial velocities to the atoms in our data file, see the LAMMPS 'velocity' command
# The number '886874' is the seed number which helps LAMMPS to consistently assign the same randomized velocities for the same simulation with the same seed number
# Changing that seed number for your simulation of a given system is one easy way to run an 'independent' simulation of the same system as taught in class
# You will need to do this for your homework

thermo_style    custom step vol temp press ke pe etotal enthalpy evdwl ecoul epair ebond eangle edihed eimp emol elong etail lx ly lz xy xz yz density
thermo          ${thermofreq}
thermo          1000

fix npt_density all npt temp ${simulationTemp} ${simulationTemp} 100 iso ${simulationPress} ${simulationPress} 1000
fix npt_density all npt temp 293 ${simulationTemp} 100 iso ${simulationPress} ${simulationPress} 1000
fix npt_density all npt temp 293 293 100 iso ${simulationPress} ${simulationPress} 1000
fix npt_density all npt temp 293 293 100 iso 0.987 ${simulationPress} 1000
fix npt_density all npt temp 293 293 100 iso 0.987 0.987 1000

run 50000
Ewald initialization ...
  using 12-bit tables for long-range coulomb (src/kspace.cpp:332)
  G vector (1/distance) = 0.140701
  estimated absolute RMS force accuracy = 0.0347754
  estimated relative force accuracy = 0.000104725
  KSpace vectors: actual max1d max3d = 128 4 364
                  kxmax kymax kzmax  = 4 4 4
Per MPI rank memory allocation (min/avg/max) = 22.49 | 22.55 | 22.87 Mbytes
Step Volume Temp Press KinEng PotEng TotEng Enthalpy E_vdwl E_coul E_pair E_bond E_angle E_dihed E_impro E_mol E_long E_tail Lx Ly Lz Xy Xz Yz Density 
     518        64000          293    2135.4672    4715.3643   -1423.6798    3291.6845    5284.8748   -2105.2356    4220.8927   -2313.0078    42.286151    240.31421     606.7276            0    889.32797   -4428.6649    -42.52282           40           40           40            0            0            0   0.67578079 
    1000    64435.901    216.84002   -1236.6775    3489.6918    2702.2164    6191.9082    5029.7634   -1710.7462    4304.0768   -1836.4811    1552.5059     2088.741    897.45062            0    4538.6975   -4429.8117   -42.235158    40.090607    40.090607    40.090607            0            0            0   0.67120921 
    2000    62028.278    297.66337   -546.38447    4790.4137    3359.4238    8149.8375    7655.5679   -1558.3048    4259.4356   -1727.2557     1613.026    2457.6404     1016.013            0    5086.6795   -4428.3865   -43.874512    39.584933    39.584933    39.584933            0            0            0   0.69726214 
    3000    59248.807    289.21994   -243.72851    4654.5303     3146.107    7800.6373    7590.0356   -1630.4333    4203.5451   -1856.7145    1552.7539     2431.085    1018.9827            0    5002.8216   -4429.8262   -45.932747    38.984611    38.984611    38.984611            0            0            0     0.729972 
    4000    58428.464     299.0238    479.87158    4812.3077    3068.1183     7880.426    8289.3338   -1649.5232    4218.3016   -1861.2626    1566.5964    2357.3665    1005.4181            0    4929.3809   -4430.0409   -46.577649     38.80385     38.80385     38.80385            0            0            0   0.74022091 
    5000    57563.186    291.68757    296.28157    4694.2428    3032.4716    7726.7144    7975.4428   -1715.5677    4198.9704   -1946.9904     1576.833    2410.3615    992.26753            0     4979.462   -4430.3931   -47.277794    38.611346    38.611346    38.611346            0            0            0   0.75134775 
    6000    57206.802    288.19849    357.35034    4638.0917    2982.9487    7621.0404    7919.1787   -1671.8235    4127.6616   -1974.7141    1583.4927     2401.738    972.43211            0    4957.6627   -4430.5521   -47.572323    38.531498    38.531498    38.531498            0            0            0   0.75602846 
    7000    56566.042    292.14923     445.8868    4701.6726    2901.6726    7603.3452    7971.1829   -1720.3132    4098.0764   -2053.3609    1585.6165    2414.1274    955.28962            0    4955.0335   -4431.1241   -48.111205    38.387096    38.387096    38.387096            0            0            0   0.76459248 
    8000    56181.623    296.03498    -846.3475    4764.2075    2772.2798    7536.4873    6843.0313   -1749.3588    4117.7077   -2062.5215    1563.8892    2323.1661    947.74596            0    4834.8012   -4430.8704   -48.440403     38.29994     38.29994     38.29994            0            0            0   0.76982416 
    9000    56413.196    297.27236   -215.09301     4784.121    2843.8841    7628.0051    7451.0419   -1741.8901    4091.3069   -2082.2675    1560.2624    2447.4701    918.41918            0    4926.1516   -4431.6843   -48.241558     38.35249     38.35249     38.35249            0            0            0   0.76666406 
   10000    55785.766    289.97433    358.44568     4666.671    2776.7432    7443.4142    7735.0378   -1746.9733    4043.2711   -2134.7521    1549.5259    2438.5836    923.38575            0    4911.4953     -4431.05   -48.784137    38.209774    38.209774    38.209774            0            0            0   0.77528684 
   11000    55825.941    300.59945     23.73567    4837.6652    2874.6267     7712.292    7731.6167   -1777.1582    4090.9716   -2116.2037    1607.7225    2466.1887    916.91925            0    4990.8304   -4430.0171    -48.74903    38.218944    38.218944    38.218944            0            0            0   0.77472891 
   12000    54988.393    292.41895   -277.97067    4706.0132    2710.6187    7416.6319    7193.7136   -1753.4968    4024.4395   -2161.1753    1607.9882     2339.044    924.76178            0     4871.794    -4432.118   -49.491544    38.026849    38.026849    38.026849            0            0            0   0.78652909 
   13000    54841.842    287.54499    492.48647    4627.5746    2735.3394    7362.9139    7756.8105   -1813.8705    4099.8233   -2145.1528    1553.3301    2407.6774     919.4847            0    4880.4922   -4431.1056   -49.623797    37.993037    37.993037    37.993037            0            0            0   0.78863088 
   14000     54991.55    292.45828   -881.29114    4706.6461    2710.3126    7416.9588    6710.1674   -1786.6173    4054.9555    -2164.042    1588.6223     2392.084    893.64837            0    4874.3546   -4432.3801   -49.488703    38.027577    38.027577    38.027577            0            0            0   0.78648393 
   15000    54629.208    293.58209    390.86368     4724.732    2689.3673    7414.0994    7725.5047   -1786.0921      4058.27   -2158.7855    1547.8558    2399.4399    900.85706            0    4848.1528   -4430.9634   -49.816949    37.943871    37.943871    37.943871            0            0            0   0.79170048 
   16000    54427.734    284.31176   -690.32001     4575.541    2658.6549    7234.1959    6686.2388   -1837.4613    4018.2727   -2249.0154    1603.7124     2424.816    879.14187            0    4907.6703   -4429.8268   -50.001355    37.897168    37.897168    37.897168            0            0            0    0.7946311 
   17000     54632.36    295.59825    306.86742    4757.1789    2654.3028    7411.4817    7655.9804   -1828.6548    4054.3252   -2205.0144    1607.1205    2384.1041    868.09263            0    4859.3172   -4430.6848   -49.814075    37.944601    37.944601    37.944601            0            0            0   0.79165481 
   18000    54184.109    290.80327   -511.12805    4680.0115    2607.0448    7287.0563    6883.1529   -1819.1538    4016.4414    -2233.892    1571.3283    2405.6863    863.92226            0    4840.9368   -4431.1796   -50.226174    37.840539    37.840539    37.840539            0            0            0   0.79820396 
   19000    55019.405    294.22566   -805.89686    4735.0892    2679.3071    7414.3964    6767.7435   -1809.5514    4011.2475   -2231.4834    1644.4265    2422.6743    843.68982            0    4910.7906   -4433.1796   -49.463648    38.033997    38.033997    38.033997            0            0            0   0.78608575 
   20000    54111.239    296.01267   -811.62096    4763.8484    2574.0187    7337.8671    6697.3708    -1834.909    3956.4045   -2311.7304    1635.0986    2360.0322    890.61833            0    4885.7491   -4433.2259   -50.293811    37.823568    37.823568    37.823568            0            0            0   0.79927887 
   21000    54404.539    294.31243   -3.0797325    4736.4858    2521.8905    7258.3763    7255.9328   -1804.5521    3933.5055   -2303.6062    1516.5454    2448.8823    860.06899            0    4825.4967   -4432.5596   -50.022673    37.891783    37.891783    37.891783            0            0            0    0.7949699 
   22000    54445.056    290.35989   -853.13534    4672.8759    2507.5239    7180.3998    6502.9888   -1815.3642    3949.8236   -2296.0652    1598.2617    2371.8846    833.44289            0    4803.5891   -4430.5247   -49.985447    37.901187    37.901187    37.901187            0            0            0   0.79437829 
   23000    53685.417    289.57476    -563.2262    4660.2406    2527.2336    7187.4742     6746.498   -1836.4366    3893.8687   -2374.2644    1608.0851    2420.0495    873.36338            0     4901.498   -4431.6965   -50.692732     37.72409     37.72409     37.72409            0            0            0    0.8056186 
   24000    54086.349    290.79914     -1552.39    4679.9449    2482.3093    7162.2542    5937.7384   -1845.9226    3948.3336   -2328.5247    1572.5485    2390.9556     847.3299            0     4810.834   -4430.9357   -50.316956    37.817768    37.817768    37.817768            0            0            0    0.7996467 
   25000    54631.084    292.97727   -1550.6275    4714.9985    2547.4052    7262.4038    6026.9594   -1858.4006       3979.3   -2311.7851    1573.2154    2443.1646    842.81035            0    4859.1904   -4432.6846   -49.815238    37.944305    37.944305    37.944305            0            0            0   0.79167329 
   26000    54602.308    293.28528    747.02789    4719.9555    2600.6456     7320.601    7915.4733   -1819.6397    3981.9717   -2269.4248    1612.2917    2429.8834    827.89536            0    4870.0704   -4431.7568   -49.841491    37.937642    37.937642    37.937642            0            0            0   0.79209051 
   27000     53573.94    294.19449   -962.26322    4734.5877    2452.7122    7187.2999    6435.4634   -1852.7447    3902.8641   -2382.4153    1609.3552    2387.4672    838.30513            0    4835.1275   -4432.5346   -50.798214    37.697961    37.697961    37.697961            0            0            0   0.80729493 
   28000    53799.522    296.03214   -472.85481    4764.1616     2535.877    7300.0387    6929.0316    -1845.266    3918.5934   -2357.8247    1602.8137    2493.4526    797.43541            0    4893.7017   -4431.1521   -50.585216    37.750798    37.750798    37.750798            0            0            0   0.80390993 
   29000    53778.965    293.84848     208.9254    4729.0192     2437.698    7166.7172    7330.5797   -1858.3971    3940.2051   -2348.6526    1552.1651    2411.1068    823.07881            0    4786.3506   -4430.4606   -50.604553    37.745989    37.745989    37.745989            0            0            0   0.80421723 
   30000    54597.821    292.70632   -236.30138    4710.6379    2464.3203    7174.9582    6986.8025   -1804.2718     3866.842   -2369.8644     1595.709    2424.8357    813.63998            0    4834.1847   -4432.4347   -49.845587    37.936603    37.936603    37.936603            0            0            0   0.79215561 
   31000    53404.223    295.10019    787.70782    4749.1634    2455.2977    7204.4611    7817.9641   -1836.4208    3890.0601    -2377.306    1602.2482    2419.2227    811.13286            0    4832.6037   -4430.9453   -50.959649    37.658111    37.658111    37.658111            0            0            0   0.80986049 
   32000    53399.385    291.23169    190.51982    4686.9061    2394.7124    7081.6185    7229.9906   -1874.0336    3944.5505   -2360.6654    1552.7883    2390.9947    811.59476            0    4755.3777   -4431.1823   -50.964266    37.656974    37.656974    37.656974            0            0            0   0.80993387 
   33000    53525.923    288.26812    1172.4751    4639.2122    2406.9216    7046.1338    7961.3921   -1842.0184     3908.677   -2365.3985    1550.3316    2413.3561    808.63236            0    4772.3201   -4432.0571   -50.843784    37.686695    37.686695    37.686695            0            0            0   0.80801914 
   34000    53988.795    292.59518   -1022.2377    4708.8493    2594.9425    7303.7919    6498.9114   -1841.2156    3930.3597   -2342.9247    1614.2167    2519.3989    804.25164            0    4937.8673   -4432.0688   -50.407876    37.795017    37.795017    37.795017            0            0            0   0.80109161 
   35000    53987.233    292.84559   -1149.1686    4712.8794    2481.5471    7194.4265    6289.6304   -1843.2218    3890.8728   -2383.7015    1620.3588     2445.164    799.72593            0    4865.2487   -4431.3526   -50.409334    37.794652    37.794652    37.794652            0            0            0   0.80111478 
   36000    53714.331     298.7063   -592.25752    4807.1979    2470.8034    7278.0013    6814.0455   -1837.7465    3875.0873   -2394.9596    1572.2896    2488.6824    804.79102            0     4865.763   -4432.3004   -50.665444    37.730862    37.730862    37.730862            0            0            0   0.80518493 
   37000    53262.464    294.72124   -1259.8306    4743.0649    2372.9174    7115.9823    6137.3731   -1895.0706    3905.8034   -2420.4045    1600.6268    2365.4225    827.27254            0    4793.3219   -4431.1374   -51.095279    37.624761    37.624761    37.624761            0            0            0   0.81201594 
   38000    53373.382    295.93549   -99.853013    4762.6062    2459.0025    7221.6088    7143.8836   -1918.6195    3920.9985   -2429.7059    1597.7685    2482.3217    808.61822            0    4888.7084   -4432.0848   -50.989095    37.650861    37.650861    37.650861            0            0            0   0.81032845 
   39000    53800.055    293.89746   -1061.0563    4729.8074    2391.2264    7121.0338    6288.5093   -1864.6317    3873.8342   -2423.3955    1594.1822    2417.1089    803.33085            0    4814.6219   -4432.5981   -50.584715    37.750923    37.750923    37.750923            0            0            0   0.80390197 
   40000    53401.229    288.14808    323.32237    4637.2804     2379.603    7016.8833    7268.6875   -1828.2869    3857.2905   -2402.7894    1534.9289    2418.5545    828.90898            0    4782.3923   -4431.7929   -50.962507    37.657407    37.657407    37.657407            0            0            0   0.80990591 
   41000    53475.545    292.11337    333.43364    4701.0954    2387.7691    7088.8645    7348.9047   -1845.2914    3838.6173   -2436.8291    1631.5977    2388.8707    804.12977            0    4824.5982   -4430.1551   -50.891682    37.674868    37.674868    37.674868            0            0            0   0.80878035 
   42000    53484.766    291.14842   -628.32574     4685.566    2483.2054    7168.7714    6678.6645   -1844.1971    3866.9331   -2408.4061    1625.1103    2444.1826    822.31866            0    4891.6115   -4431.1421   -50.882909    37.677033    37.677033    37.677033            0            0            0   0.80864092 
   43000    53241.783    288.53737   -779.44428    4643.5455    2265.0604    6908.6059    6303.3855   -1857.2887    3792.1653   -2497.5834    1592.0085     2392.843     777.7923            0    4762.6438   -4432.4599   -51.115126    37.619891    37.619891    37.619891            0            0            0   0.81233137 
   44000    53165.157    293.19702    56.695493     4718.535    2315.9279     7034.463    7078.4223   -1870.6877    3846.9145   -2453.2297    1598.9793    2390.7264    779.45197            0    4769.1577   -4429.4566   -51.188798    37.601834    37.601834    37.601834            0            0            0   0.81350217 
   45000    53560.946    295.05344    348.68464    4748.4111    2339.5103    7087.9214      7360.29    -1870.547    3888.4792   -2412.9226    1637.9198    2346.4666     768.0465            0    4752.4329   -4430.8548   -50.810537    37.694913    37.694913    37.694913            0            0            0   0.80749078 
   46000    53911.486    297.58704    1479.7797    4789.1854    2427.0208    7216.2061    8379.6737   -1845.4941    3894.2443     -2383.99    1636.2016    2384.6328    790.17646            0    4811.0108   -4432.7403    -50.48016    37.776968    37.776968    37.776968            0            0            0   0.80224036 
   47000    52982.656    290.02158    903.89093    4667.4314    2422.8764    7090.3079    7788.7423    -1820.018    3800.9521   -2450.7844    1635.7913    2424.2971    813.57243            0    4873.6608   -4431.7185   -51.365119     37.55876     37.55876     37.55876            0            0            0    0.8163043 
   48000    53241.489    292.54326   -379.46924    4708.0138    2359.8859    7067.8997    6773.2523   -1903.3371    3877.4102   -2458.7489    1610.2421    2415.7568    792.63584            0    4818.6348   -4432.8219   -51.115409    37.619821    37.619821    37.619821            0            0            0   0.81233586 
   49000    53821.537    292.52359   -974.93641    4707.6972    2273.9323    6981.6296    6216.3709   -1837.4842    3841.6728   -2427.3113    1606.8412    2302.8572     791.5452            0    4701.2436   -4431.4998   -50.564525    37.755947    37.755947    37.755947            0            0            0    0.8035811 
   50000    53542.529    287.20103     894.2523    4622.0391    2416.9322    7038.9713    7737.2597   -1863.8455     3888.008   -2408.7397    1627.1441    2422.4485    776.07929            0    4825.6719   -4432.9022   -50.828015    37.690592    37.690592    37.690592            0            0            0   0.80776854 
   50518    53969.979    290.21714   -350.05775    4670.5786      2415.69    7086.2686    6810.7392   -1860.9633     3866.102   -2428.8148    1629.6033    2455.4029    759.49855            0    4844.5047   -4433.9534   -50.425449    37.790626    37.790626    37.790626            0            0            0   0.80137089 
Loop time of 247.357 on 48 procs for 50000 steps with 5400 atoms

Performance: 17.465 ns/day, 1.374 hours/ns, 202.137 timesteps/s
66.7% CPU use with 48 MPI tasks x 1 OpenMP threads

MPI task timing breakdown:
Section |  min time  |  avg time  |  max time  |%varavg| %total
---------------------------------------------------------------
Pair    | 93.076     | 105.1      | 116.76     |  51.4 | 42.49
Bond    | 4.115      | 4.6151     | 5.2807     |  11.4 |  1.87
Kspace  | 27.656     | 39.217     | 52.859     |  88.5 | 15.85
Neigh   | 17.554     | 18.375     | 18.885     |  11.7 |  7.43
Comm    | 45.369     | 51.085     | 60.246     |  45.2 | 20.65
Output  | 0.054967   | 0.055981   | 0.065762   |   0.6 |  0.02
Modify  | 17.362     | 22.619     | 26.096     |  42.6 |  9.14
Other   |            | 6.286      |            |       |  2.54

Nlocal:    112.5 ave 128 max 90 min
Histogram: 1 2 2 4 3 8 12 8 6 2
Nghost:    6527.35 ave 6636 max 6434 min
Histogram: 3 6 3 6 9 7 6 4 3 1
Neighs:    79524.7 ave 95189 max 64095 min
Histogram: 1 3 6 5 9 9 7 4 2 2

Total # of neighbors = 3817185
Ave neighs/atom = 706.886
Ave special neighs/atom = 10.4444
Neighbor list builds = 5464
Dangerous builds = 0

unfix npt_density

fix reshape_box all deform 1 x final 0.0 37.4456 y final 0.0 37.4456 z final 0.0 37.4456 units box

run 100000
Ewald initialization ...
  using 12-bit tables for long-range coulomb (src/kspace.cpp:332)
  G vector (1/distance) = 0.142238
  estimated absolute RMS force accuracy = 0.0339032
  estimated relative force accuracy = 0.000102099
  KSpace vectors: actual max1d max3d = 128 4 364
                  kxmax kymax kzmax  = 4 4 4
Per MPI rank memory allocation (min/avg/max) = 22.51 | 22.56 | 22.89 Mbytes
Step Volume Temp Press KinEng PotEng TotEng Enthalpy E_vdwl E_coul E_pair E_bond E_angle E_dihed E_impro E_mol E_long E_tail Lx Ly Lz Xy Xz Yz Density 
   50518    53969.979    290.21714   -350.00834    4670.5786    2415.6729    7086.2515     6810.761   -1860.9633    3914.3363   -2428.8318    1629.6033    2455.4029    759.49855            0    4844.5047   -4482.2048   -50.425449    37.790626    37.790626    37.790626            0            0            0   0.80137089 
   51000    53962.855    290.21714     -249.677    4670.5786    2415.3123    7085.8909    6889.3969   -1860.4066    3914.3937   -2428.2184    1628.6293    2455.4029    759.49855            0    4843.5307   -4482.2055   -50.432107    37.788963    37.788963    37.788963            0            0            0   0.80147669 
   52000    53948.075    290.21714   -40.614608    4670.5786    2414.6928    7085.2713    7053.3167   -1859.2454    3914.6086   -2426.8438    1626.6352    2455.4029    759.49855            0    4841.5366   -4482.2071   -50.445923    37.785513    37.785513    37.785513            0            0            0   0.80169627 
   53000    53933.298    290.21714     167.4569    4670.5786    2413.8548    7084.4334    7216.1486   -1858.0798    3914.5591   -2425.7293    1624.6827    2455.4029    759.49855            0    4839.5841   -4482.2086   -50.459745    37.782062    37.782062    37.782062            0            0            0   0.80191592 
   54000    53918.524    290.21714    376.36386    4670.5786     2413.239    7083.8175    7379.7699   -1856.9122     3914.688   -2424.4343    1622.7718    2455.4029    759.49855            0    4837.6733   -4482.2101   -50.473571    37.778612    37.778612    37.778612            0            0            0   0.80213565 
   55000    53903.752    290.21714    585.06471    4670.5786    2412.5939    7083.1725    7543.1099   -1855.7412    3914.7427   -2423.2101    1620.9026    2455.4029    759.49855            0     4835.804   -4482.2116   -50.487403    37.775162    37.775162    37.775162            0            0            0   0.80235546 
   56000    53888.984    290.21714     793.5586    4670.5786    2411.9198    7082.4983    7706.1684   -1854.5664    3914.7229   -2422.0567     1619.075    2455.4029    759.49855            0    4833.9764   -4482.2131   -50.501239    37.771712    37.771712    37.771712            0            0            0   0.80257536 
   57000    53874.217    290.21714    1002.1212    4670.5786    2411.2824    7081.8609    7869.2278   -1853.3895    3914.6961   -2420.9081    1617.2891    2455.4029    759.49855            0    4832.1905   -4482.2147   -50.515081    37.768261    37.768261    37.768261            0            0            0   0.80279533 
   58000    53859.454    290.21714    1210.9581    4670.5786    2410.7321    7081.3107       8032.5   -1852.2082    3914.7104    -2419.714    1615.5447    2455.4029    759.49855            0    4830.4461   -4482.2162   -50.528928    37.764811    37.764811    37.764811            0            0            0   0.80301539 
   59000    53844.693    290.21714    1418.7685    4670.5786    2409.9546    7080.5331    8194.6489   -1851.0243    3914.4532   -2418.7889     1613.842    2455.4029    759.49855            0    4828.7434   -4482.2177    -50.54278    37.761361    37.761361    37.761361            0            0            0   0.80323552 
   60000    53829.935    290.21714    1627.0855    4670.5786    2409.3195    7079.8981    8357.2487   -1849.8382    3914.2945   -2417.7629     1612.181    2455.4029    759.49855            0    4827.0824   -4482.2192   -50.556636     37.75791     37.75791     37.75791            0            0            0   0.80345574 
   61000     53815.18    290.21714    1835.7643    4670.5786    2408.7927    7079.3713     8520.151    -1848.648    3914.1985   -2416.6702    1610.5615    2455.4029    759.49855            0    4825.4629   -4482.2208   -50.570498     37.75446     37.75446     37.75446            0            0            0   0.80367603 
   62000    53800.427    290.21714     2044.376    4670.5786    2408.2702    7078.8488    8682.9153   -1847.4549    3914.0623   -2415.6149    1608.9837    2455.4029    759.49855            0    4823.8851   -4482.2223   -50.584365     37.75101     37.75101     37.75101            0            0            0   0.80389641 
   63000    53785.677    290.21714    2253.5379    4670.5786    2407.9006    7078.4792    8846.1744   -1846.2595     3914.035   -2414.4483    1607.4475    2455.4029    759.49855            0    4822.3489   -4482.2238   -50.598237     37.74756     37.74756     37.74756            0            0            0   0.80411687 
   64000     53770.93    290.21714    2463.3191    4670.5786    2407.7011    7078.2797    9009.9994   -1845.0602    3914.1322   -2413.1533     1605.953    2455.4029    759.49855            0    4820.8544   -4482.2253   -50.612114    37.744109    37.744109    37.744109            0            0            0    0.8043374 
   65000    53756.186    290.21714    2671.3857    4670.5786    2407.1087    7077.6873    9171.9971   -1843.8583    3913.7924   -2412.2928    1604.5001    2455.4029    759.49855            0    4819.4015   -4482.2269   -50.625997    37.740659    37.740659    37.740659            0            0            0   0.80455802 
   66000    53741.444    290.21714    2880.5121    4670.5786    2406.7922    7077.3707     9335.012   -1842.6534    3913.6838   -2411.1981    1603.0888    2455.4029    759.49855            0    4817.9902   -4482.2284   -50.639884    37.737209    37.737209    37.737209            0            0            0   0.80477872 
   67000    53726.705    290.21714    3089.9972    4670.5786    2406.5829    7077.1615    9498.3253   -1841.4444    3913.6366   -2410.0377    1601.7192    2455.4029    759.49855            0    4816.6206   -4482.2299   -50.653776    37.733759    37.733759    37.733759            0            0            0    0.8049995 
   68000    53711.968    290.21714    3299.0625    4670.5786    2406.2932    7076.8718    9661.1395   -1840.2314    3913.4635   -2408.9993    1600.3912    2455.4029    759.49855            0    4815.2926   -4482.2314   -50.667674    37.730308    37.730308    37.730308            0            0            0   0.80522036 
   69000    53697.234    290.21714    3507.8826    4670.5786     2405.965    7076.5435    9823.6334   -1839.0157    3913.2074   -2408.0412    1599.1048    2455.4029    759.49855            0    4814.0062   -4482.2329   -50.681576    37.726858    37.726858    37.726858            0            0            0    0.8054413 
   70000    53682.503    290.21714    3717.9164    4670.5786     2405.949    7076.5276    9987.3001   -1837.7971    3913.2192   -2406.8124      1597.86    2455.4029    759.49855            0    4812.7614   -4482.2345   -50.695484    37.723408    37.723408    37.723408            0            0            0   0.80566232 
   71000    53667.775    290.21714    3929.0919    4670.5786     2406.228    7076.8066    10152.065   -1836.5756    3913.4812   -2405.3303    1596.6569    2455.4029    759.49855            0    4811.5583    -4482.236   -50.709396    37.719958    37.719958    37.719958            0            0            0   0.80588343 
   72000    53653.049    290.21714    4139.6376    4670.5786    2406.3756    7076.9541    10316.116   -1835.3521    3913.5683   -2404.0213    1595.4954    2455.4029    759.49855            0    4810.3969   -4482.2375   -50.723314    37.716507    37.716507    37.716507            0            0            0   0.80610461 
   73000    53638.326    290.21714     4348.784    4670.5786    2406.2078    7076.7864    10478.666   -1834.1239    3913.2938   -2403.0692    1594.3756    2455.4029    759.49855            0     4809.277    -4482.239   -50.737237    37.713057    37.713057    37.713057            0            0            0   0.80632588 
   74000    53623.606    290.21714    4559.3665    4670.5786    2406.4056    7076.9841    10642.615   -1832.8933    3913.3406   -2401.7932    1593.2974    2455.4029    759.49855            0    4808.1988   -4482.2405   -50.751165    37.709607    37.709607    37.709607            0            0            0   0.80654722 
   75000    53608.888    290.21714     4769.539    4670.5786    2406.5257    7077.1043    10806.076    -1831.658    3913.2636   -2400.6365    1592.2608    2455.4029    759.49855            0    4807.1622   -4482.2421   -50.765098    37.706157    37.706157    37.706157            0            0            0   0.80676865 
   76000    53594.173    290.21714    4979.6652    4670.5786    2406.6547    7077.2333    10969.419   -1830.4203    3913.1513   -2399.5126    1591.2658    2455.4029    759.49855            0    4806.1673   -4482.2436   -50.779036    37.702706    37.702706    37.702706            0            0            0   0.80699016 
   77000    53579.461    290.21714    5190.0201    4670.5786    2406.8591    7077.4377    11132.927   -1829.1793    3913.0696   -2398.3548    1590.3125    2455.4029    759.49855            0    4805.2139   -4482.2451   -50.792979    37.699256    37.699256    37.699256            0            0            0   0.80721174 
   78000    53564.752    290.21714    5400.9729    4670.5786    2407.2269    7077.8054    11296.975   -1827.9366    3913.1079   -2397.0754    1589.4008    2455.4029    759.49855            0    4804.3022   -4482.2466   -50.806928    37.695806    37.695806    37.695806            0            0            0   0.80743341 
   79000    53550.045    290.21714    5611.8716    4670.5786    2407.6027    7078.1812    11460.898   -1826.6884    3913.1071   -2395.8295    1588.5308    2455.4029    759.49855            0    4803.4322   -4482.2482   -50.820881    37.692356    37.692356    37.692356            0            0            0   0.80765517 
   80000    53535.341    290.21714    5822.5293    4670.5786    2407.9409    7078.5194    11624.506   -1825.4378    3913.0246   -2394.6629    1587.7024    2455.4029    759.49855            0    4802.6038   -4482.2497    -50.83484    37.688905    37.688905    37.688905            0            0            0     0.807877 
   81000    53520.639    290.21714    6033.2209    4670.5786     2408.308    7078.8866    11788.079   -1824.1832    3912.9255   -2393.5089    1586.9156    2455.4029    759.49855            0     4801.817   -4482.2512   -50.848803    37.685455    37.685455    37.685455            0            0            0   0.80809891 
   82000     53505.94    290.21714    6244.9609    4670.5786     2408.947    7079.5256    11952.651   -1822.9253    3913.0532   -2392.1248    1586.1704    2455.4029    759.49855            0    4801.0718   -4482.2527   -50.862772    37.682005    37.682005    37.682005            0            0            0   0.80832091 
   83000    53491.244    290.21714    6455.9947    4670.5786    2409.4374    7080.0159    12116.434   -1821.6634    3912.9867   -2390.9309    1585.4669    2455.4029    759.49855            0    4800.3683   -4482.2542   -50.876746    37.678555    37.678555    37.678555            0            0            0   0.80854298 
   84000    53476.551    290.21714    6666.7218    4670.5786    2409.8749    7080.4535    12279.834   -1820.3979    3912.8222   -2389.8315     1584.805    2455.4029    759.49855            0    4799.7064   -4482.2558   -50.890725    37.675104    37.675104    37.675104            0            0            0   0.80876514 
   85000     53461.86    290.21714    6877.6224    4670.5786    2410.3737    7080.9522    12443.341   -1819.1306    3912.6754   -2388.7125    1584.1847    2455.4029    759.49855            0    4799.0861   -4482.2573   -50.904709    37.671654    37.671654    37.671654            0            0            0   0.80898738 
   86000    53447.172    290.21714    7089.3962    4670.5786    2411.1013    7081.6799    12607.667   -1817.8611    3912.7137   -2387.4062    1583.6061    2455.4029    759.49855            0    4798.5075   -4482.2588   -50.918699    37.668204    37.668204    37.668204            0            0            0    0.8092097 
   87000    53432.487    290.21714    7300.4952    4670.5786    2411.6884    7082.2669    12771.236   -1816.5869     3912.565   -2386.2821    1583.0691    2455.4029    759.49855            0    4797.9705   -4482.2603   -50.932693    37.664754    37.664754    37.664754            0            0            0    0.8094321 
   88000    53417.804    290.21714    7512.0979    4670.5786     2412.416    7082.9946    12935.249     -1815.31    3912.5127   -2385.0591    1582.5737    2455.4029    759.49855            0    4797.4751   -4482.2618   -50.946693    37.661303    37.661303    37.661303            0            0            0   0.80965459 
   89000    53403.124    290.21714    7722.8727    4670.5786    2412.9662    7083.5448    13098.348   -1814.0292    3912.2374   -2384.0552      1582.12    2455.4029    759.49855            0    4797.0214   -4482.2634   -50.960697    37.657853    37.657853    37.657853            0            0            0   0.80987715 
   90000    53388.447    290.21714    7934.5233    4670.5786    2413.7467    7084.3253     13262.27   -1812.7445    3912.1468   -2382.8626    1581.7079    2455.4029    759.49855            0    4796.6093   -4482.2649   -50.974707    37.654403    37.654403    37.654403            0            0            0    0.8100998 
   91000    53373.773    290.21714    8146.9497    4670.5786    2414.7329    7085.3115    13426.911   -1811.4572    3912.2177   -2381.5059    1581.3374    2455.4029    759.49855            0    4796.2388   -4482.2664   -50.988722    37.650952    37.650952    37.650952            0            0            0   0.81032253 
   92000    53359.101    290.21714    8358.4995    4670.5786    2415.5296    7086.1082     13590.59   -1810.1666    3912.0541   -2380.3804    1581.0086    2455.4029    759.49855            0      4795.91   -4482.2679   -51.002742    37.647502    37.647502    37.647502            0            0            0   0.81054534 
   93000    53344.432    290.21714    8570.0788    4670.5786    2416.3538    7086.9324    13754.229   -1808.8726     3911.873    -2379.269    1580.7214    2455.4029    759.49855            0    4795.6228   -4482.2694   -51.016767    37.644052    37.644052    37.644052            0            0            0   0.81076823 
   94000    53329.765    290.21714    8782.1539    4670.5786    2417.3167    7087.8953    13918.303   -1807.5754    3911.7858   -2378.0605    1580.4758    2455.4029    759.49855            0    4795.3772   -4482.2709   -51.030798    37.640602    37.640602    37.640602            0            0            0    0.8109912 
   95000    53315.101    290.21714    8995.0812    4670.5786    2418.5038    7089.0823    14083.172   -1806.2743    3911.8772   -2376.6695    1580.2719    2455.4029    759.49855            0    4795.1733   -4482.2725   -51.044833    37.637151    37.637151    37.637151            0            0            0   0.81121426 
   96000     53300.44    290.21714    9206.9993    4670.5786    2419.4702    7090.0488    14246.946   -1804.9693    3911.7025   -2375.5408    1580.1096    2455.4029    759.49855            0     4795.011    -4482.274   -51.058874    37.633701    37.633701    37.633701            0            0            0   0.81143739 
   97000    53285.782    290.21714    9419.5905    4670.5786    2420.6177    7091.1963    14411.334   -1803.6612    3911.6641   -2374.2726    1579.9889    2455.4029    759.49855            0    4794.8903   -4482.2755    -51.07292    37.630251    37.630251    37.630251            0            0            0   0.81166061 
   98000    53271.126    290.21714    9632.2173    4670.5786    2421.7934    7092.3719    14575.687   -1802.3508    3911.6099   -2373.0179    1579.9099    2455.4029    759.49855            0    4794.8113    -4482.277   -51.086971    37.626801    37.626801    37.626801            0            0            0   0.81188391 
   99000    53256.473    290.21714    9845.5267    4670.5786    2423.1528    7093.7314    14740.664   -1801.0357    3911.6932   -2371.6211    1579.8725    2455.4029    759.49855            0    4794.7739   -4482.2785   -51.101027     37.62335     37.62335     37.62335            0            0            0   0.81210729 
  100000    53241.823    290.21714    10057.914    4670.5786    2424.3121    7094.8907    14904.634   -1799.7182    3911.5323    -2370.466    1579.8767    2455.4029    759.49855            0    4794.7781   -4482.2801   -51.115088      37.6199      37.6199      37.6199            0            0            0   0.81233076 
  101000    53227.175    290.21714    10271.196    4670.5786    2425.7057    7096.2842    15069.441   -1798.3957     3911.559   -2369.1183    1579.9225    2455.4029    759.49855            0    4794.8239   -4482.2816   -51.129155     37.61645     37.61645     37.61645            0            0            0   0.81255431 
  102000     53212.53    290.21714    10484.746    4670.5786    2427.1829    7097.7614     15234.45   -1797.0713    3911.6258   -2367.7286      1580.01    2455.4029    759.49855            0    4794.9114   -4482.2831   -51.143226       37.613       37.613       37.613            0            0            0   0.81277793 
  103000    53197.888    290.21714    10698.391    4670.5786    2428.7029    7099.2814    15399.485   -1795.7431      3911.69   -2366.3377    1580.1391    2455.4029    759.49855            0    4795.0405   -4482.2846   -51.157303    37.609549    37.609549    37.609549            0            0            0   0.81300164 
  104000    53183.248    290.21714    10912.083    4670.5786    2430.2537    7100.8322    15564.496   -1794.4132    3911.7417   -2364.9576    1580.3099    2455.4029    759.49855            0    4795.2113   -4482.2861   -51.171385    37.606099    37.606099    37.606099            0            0            0   0.81322544 
  105000    53168.611    290.21714    11125.066    4670.5786    2431.6563    7102.2349    15728.719   -1793.0785    3911.5988   -2363.7673    1580.5223    2455.4029    759.49855            0    4795.4237   -4482.2877   -51.185472    37.602649    37.602649    37.602649            0            0            0   0.81344931 
  106000    53153.977    290.21714    11338.754    4670.5786    2433.2466    7103.8251    15893.585   -1791.7418    3911.5999   -2362.4311    1580.7763    2455.4029    759.49855            0    4795.6777   -4482.2892   -51.199564    37.599199    37.599199    37.599199            0            0            0   0.81367327 
  107000    53139.346    290.21714    11552.205    4670.5786    2434.8015    7105.3801    16058.141   -1790.3994    3911.5182   -2361.1719    1581.0719    2455.4029    759.49855            0    4795.9733   -4482.2907   -51.213662    37.595748    37.595748    37.595748            0            0            0   0.81389731 
  108000    53124.717    290.21714    11765.734    4670.5786    2436.3949    7106.9734    16222.705   -1789.0543    3911.4307   -2359.9158    1581.4092    2455.4029    759.49855            0    4796.3106   -4482.2922   -51.227764    37.592298    37.592298    37.592298            0            0            0   0.81412143 
  109000    53110.091    290.21714    11979.441    4670.5786    2438.0508    7108.6294     16387.38   -1787.7056    3911.3606   -2358.6387    1581.7881    2455.4029    759.49855            0    4796.6895   -4482.2937   -51.241872    37.588848    37.588848    37.588848            0            0            0   0.81434563 
  110000    53095.467    290.21714    12193.655    4670.5786    2439.8472    7110.4258    16552.496   -1786.3546    3911.3869   -2357.2629    1582.2087    2455.4029    759.49855            0    4797.1101   -4482.2952   -51.255985    37.585398    37.585398    37.585398            0            0            0   0.81456992 
  111000    53080.846    290.21714    12408.164    4670.5786    2441.7337    7112.3122    16717.841   -1785.0006    3911.4588   -2355.8386    1582.6709    2455.4029    759.49855            0    4797.5723   -4482.2968   -51.270103    37.581947    37.581947    37.581947            0            0            0   0.81479429 
  112000    53066.228    290.21714    12622.055    4670.5786    2443.4937    7114.0723    16882.489   -1783.6417    3911.3576   -2354.5824    1583.1747    2455.4029    759.49855            0    4798.0761   -4482.2983   -51.284227    37.578497    37.578497    37.578497            0            0            0   0.81501874 
  113000    53051.613    290.21714     12835.03    4670.5786    2445.0561    7115.6347     17046.14   -1782.2802    3911.0146   -2353.5654    1583.7201    2455.4029    759.49855            0    4798.6215   -4482.2998   -51.298355    37.575047    37.575047    37.575047            0            0            0   0.81524327 
  114000        53037    290.21714    13048.738    4670.5786    2446.8132    7117.3918    17210.463    -1780.914      3910.82   -2352.3954    1584.3072    2455.4029    759.49855            0    4799.2086   -4482.3013   -51.312489    37.571597    37.571597    37.571597            0            0            0   0.81546789 
  115000     53022.39    290.21714    13262.916    4670.5786    2448.7022    7119.2808    17375.191   -1779.5448    3910.7126   -2351.1351    1584.9359    2455.4029    759.49855            0    4799.8373   -4482.3028   -51.326628    37.568146    37.568146    37.568146            0            0            0   0.81569259 
  116000    53007.782    290.21714    13477.243    4670.5786    2450.6462    7121.2248    17539.998   -1778.1731    3910.6161   -2349.8614    1585.6062    2455.4029    759.49855            0    4800.5076   -4482.3043   -51.340772    37.564696    37.564696    37.564696            0            0            0   0.81591737 
  117000    52993.178    290.21714    13692.153    4670.5786    2452.7495    7123.3281    17705.324   -1776.7965    3910.6323   -2348.4701    1586.3182    2455.4029    759.49855            0    4801.2196   -4482.3059   -51.354921    37.561246    37.561246    37.561246            0            0            0   0.81614223 
  118000    52978.576    290.21714    13906.663    4670.5786    2454.7774     7125.356    17870.175   -1775.4176    3910.5292   -2347.1958    1587.0718    2455.4029    759.49855            0    4801.9732   -4482.3074   -51.369076    37.557796    37.557796    37.557796            0            0            0   0.81636718 
  119000    52963.976    290.21714    14121.218    4670.5786    2456.8366    7127.4152    18035.001   -1774.0338    3910.4109   -2345.9318     1587.867    2455.4029    759.49855            0    4802.7684   -4482.3089   -51.383235    37.554345    37.554345    37.554345            0            0            0   0.81659221 
  120000     52949.38    290.21714    14335.883    4670.5786    2458.9418    7129.5204    18199.867   -1772.6474    3910.2943   -2344.6635    1588.7039    2455.4029    759.49855            0    4803.6053   -4482.3104     -51.3974    37.550895    37.550895    37.550895            0            0            0   0.81681732 
  121000    52934.786    290.21714    14551.253    4670.5786    2461.2342    7131.8128    18365.373   -1771.2572    3910.3195   -2343.2496    1589.5824    2455.4029    759.49855            0    4804.4838   -4482.3119    -51.41157    37.547445    37.547445    37.547445            0            0            0   0.81704251 
  122000    52920.194    290.21714     14765.81    4670.5786    2463.3539    7133.9324    18529.989   -1769.8641    3910.1275   -2342.0501    1590.5025    2455.4029    759.49855            0     4805.404   -4482.3134   -51.425746    37.543994    37.543994    37.543994            0            0            0   0.81726779 
  123000    52905.606    290.21714    14981.571    4670.5786    2465.7792    7136.3577    18695.748   -1768.4669    3910.1953   -2340.5865    1591.4643    2455.4029    759.49855            0    4806.3657    -4482.315   -51.439926    37.540544    37.540544    37.540544            0            0            0   0.81749315 
  124000     52891.02    290.21714    15197.004    4670.5786    2468.1463    7138.7249    18861.105   -1767.0675    3910.1612   -2339.2228    1592.4677    2455.4029    759.49855            0    4807.3691   -4482.3165   -51.454112    37.537094    37.537094    37.537094            0            0            0   0.81771859 
  125000    52876.437    290.21714    15412.044    4670.5786    2470.4401    7141.0187    19025.995   -1765.6654    3910.0094    -2337.974    1593.5127    2455.4029    759.49855            0    4808.4141    -4482.318   -51.468303    37.533644    37.533644    37.533644            0            0            0   0.81794412 
  126000    52861.856    290.21714    15627.994    4670.5786    2472.9702    7143.5488    19191.731   -1764.2578    3910.0467   -2336.5306    1594.5994    2455.4029    759.49855            0    4809.5008   -4482.3195   -51.482499    37.530193    37.530193    37.530193            0            0            0   0.81816973 
  127000    52847.278    290.21714    15843.811    4670.5786    2475.4893    7146.0679    19357.263   -1762.8456    3910.0269   -2335.1398    1595.7277    2455.4029    759.49855            0    4810.6291    -4482.321   -51.496701    37.526743    37.526743    37.526743            0            0            0   0.81839542 
  128000    52832.703    290.21714    16059.398    4670.5786    2477.9734    7148.5519    19522.491   -1761.4311     3909.928   -2333.8257    1596.8976    2455.4029    759.49855            0     4811.799   -4482.3225   -51.510907    37.523293    37.523293    37.523293            0            0            0   0.81862119 
  129000    52818.131    290.21714    16275.611    4670.5786    2480.6259    7151.2045    19688.279   -1760.0123    3909.9517   -2332.3847    1598.1092    2455.4029    759.49855            0    4813.0106   -4482.3241   -51.525119    37.519843    37.519843    37.519843            0            0            0   0.81884705 
  130000    52803.561    290.21714    16491.968    4670.5786    2483.3319    7153.9104    19854.141   -1758.5921    3909.9858   -2330.9319    1599.3624    2455.4029    759.49855            0    4814.2638   -4482.3256   -51.539336    37.516392    37.516392    37.516392            0            0            0   0.81907299 
  131000    52788.994    290.21714    16708.662    4670.5786    2486.1382    7156.7167     20020.27   -1757.1663    3910.0729   -2329.4204    1600.6572    2455.4029    759.49855            0    4815.5586   -4482.3271   -51.553558    37.512942    37.512942    37.512942            0            0            0   0.81929901 
  132000    52774.429    290.21714    16924.803    4670.5786    2488.8336    7159.4122    20185.771   -1755.7364    3910.0036   -2328.0614    1601.9936    2455.4029    759.49855            0    4816.8951   -4482.3286   -51.567786    37.509492    37.509492    37.509492            0            0            0   0.81952512 
  133000    52759.867    290.21714    17142.057    4670.5786     2491.812    7162.3906    20352.321   -1754.3037    3910.1727   -2326.4612    1603.3717    2455.4029    759.49855            0    4818.2731   -4482.3301   -51.582019    37.506042    37.506042    37.506042            0            0            0   0.81975131 
  134000    52745.308    290.21714    17358.867    4670.5786    2494.7053    7165.2838    20518.353   -1752.8683    3910.2124   -2324.9876    1604.7915    2455.4029    759.49855            0    4819.6929   -4482.3316   -51.596257    37.502591    37.502591    37.502591            0            0            0   0.81997758 
  135000    52730.752    290.21714    17574.969    4670.5786    2497.4513    7168.0299    20683.602   -1751.4287     3910.059   -2323.7029    1606.2528    2455.4029    759.49855            0    4821.1542   -4482.3332     -51.6105    37.499141    37.499141    37.499141            0            0            0   0.82020394 
  136000    52716.198    290.21714    17791.615    4670.5786    2500.3452    7170.9238    20849.325   -1749.9866    3910.0093    -2322.312    1607.7558    2455.4029    759.49855            0    4822.6572   -4482.3347   -51.624749    37.495691    37.495691    37.495691            0            0            0   0.82043038 
  137000    52701.647    290.21714     18008.52    4670.5786    2503.3214    7173.8999    21015.239    -1748.539    3909.9948   -2320.8804    1609.3004    2455.4029    759.49855            0    4824.2018   -4482.3362   -51.639002    37.492241    37.492241    37.492241            0            0            0    0.8206569 
  138000    52687.098    290.21714    18225.554    4670.5786    2506.3476    7176.9262     21181.21   -1747.0877     3909.985   -2319.4405    1610.8867    2455.4029    759.49855            0    4825.7881   -4482.3377   -51.653261     37.48879     37.48879     37.48879            0            0            0   0.82088351 
  139000    52672.553    290.21714    18442.561    4670.5786    2509.3867    7179.9653    21347.083   -1745.6351    3909.9451   -2318.0292    1612.5145    2455.4029    759.49855            0    4827.4159   -4482.3392   -51.667526     37.48534     37.48534     37.48534            0            0            0    0.8211102 
  140000     52658.01    290.21714    18659.375    4670.5786    2512.4009    7182.9794     21512.69    -1744.177    3909.8331   -2316.6846    1614.1841    2455.4029    759.49855            0    4829.0855   -4482.3407   -51.681795     37.48189     37.48189     37.48189            0            0            0   0.82133698 
  141000    52643.469    290.21714    18876.499    4670.5786    2515.5076    7186.0862    21678.537   -1742.7161    3909.7693    -2315.289    1615.8952    2455.4029    759.49855            0    4830.7966   -4482.3422    -51.69607     37.47844     37.47844     37.47844            0            0            0   0.82156383 
  142000    52628.931    290.21714    19094.048    4670.5786    2518.7347    7189.3133    21844.739    -1741.251    3909.7801   -2313.8147     1617.648    2455.4029    759.49855            0    4832.5494   -4482.3438    -51.71035    37.474989    37.474989    37.474989            0            0            0   0.82179077 
  143000    52614.396    290.21714    19310.874    4670.5786    2521.8115    7192.3901    22010.146   -1739.7822    3909.5952   -2312.5322    1619.4424    2455.4029    759.49855            0    4834.3438   -4482.3453   -51.724635    37.471539    37.471539    37.471539            0            0            0    0.8220178 
  144000    52599.864    290.21714    19528.408    4670.5786    2525.0746    7195.6532    22176.189   -1738.3103    3909.5519   -2311.1052    1621.2784    2455.4029    759.49855            0    4836.1798   -4482.3468   -51.738926    37.468089    37.468089    37.468089            0            0            0   0.82224491 
  145000    52585.334    290.21714     19745.84    4670.5786    2528.3341    7198.9127     22342.06    -1736.834    3909.4589   -2309.7234    1623.1561    2455.4029    759.49855            0    4838.0575   -4482.3483   -51.753222    37.464639    37.464639    37.464639            0            0            0    0.8224721 
  146000    52570.807    290.21714    19963.572    4670.5786    2531.6839    7202.2624     22508.16   -1735.3544    3909.4113    -2308.293    1625.0754    2455.4029    759.49855            0    4839.9768   -4482.3498   -51.767523    37.461188    37.461188    37.461188            0            0            0   0.82269937 
  147000    52556.283    290.21714    20181.706    4670.5786     2535.148    7205.7266     22674.59   -1733.8718    3909.4334   -2306.7897    1627.0364    2455.4029    759.49855            0    4841.9378   -4482.3513   -51.781829    37.457738    37.457738    37.457738            0            0            0   0.82292673 
  148000    52541.761    290.21714    20399.453    4670.5786    2538.5412    7209.1198    22840.561   -1732.3847    3909.3384   -2305.3991    1629.0389    2455.4029    759.49855            0    4843.9403   -4482.3528   -51.796141    37.454288    37.454288    37.454288            0            0            0   0.82315418 
  149000    52527.242    290.21714     20617.91    4670.5786    2542.1214       7212.7    23007.173   -1730.8943    3909.3856   -2303.8631    1631.0831    2455.4029    759.49855            0    4845.9845   -4482.3544   -51.810458    37.450837    37.450837    37.450837            0            0            0    0.8233817 
  150000    52512.726    290.21714    20836.179    4670.5786    2545.6772    7216.2557    23173.523   -1729.3997    3909.3623   -2302.3932     1633.169    2455.4029    759.49855            0    4848.0704   -4482.3559    -51.82478    37.447387    37.447387    37.447387            0            0            0   0.82360931 
  150518    52505.208    290.21714    20949.504    4670.5786    2547.5883    7218.1668    23259.927   -1728.6246    3909.4023    -2301.579    1634.2658    2455.4029    759.49855            0    4849.1672   -4482.3567   -51.832201      37.4456      37.4456      37.4456            0            0            0   0.82372725 
Loop time of 403.886 on 48 procs for 100000 steps with 5400 atoms

Performance: 21.392 ns/day, 1.122 hours/ns, 247.594 timesteps/s
69.3% CPU use with 48 MPI tasks x 1 OpenMP threads

MPI task timing breakdown:
Section |  min time  |  avg time  |  max time  |%varavg| %total
---------------------------------------------------------------
Pair    | 156.52     | 207.98     | 240.2      | 130.4 | 51.49
Bond    | 5.9673     | 8.1973     | 11.279     |  34.5 |  2.03
Kspace  | 39.015     | 74.607     | 120.97     | 219.3 | 18.47
Neigh   | 0.030679   | 0.032463   | 0.035076   |   0.6 |  0.01
Comm    | 81.451     | 91.798     | 111.23     |  71.3 | 22.73
Output  | 0.10884    | 0.1189     | 0.13241    |   1.3 |  0.03
Modify  | 0.55366    | 0.6606     | 1.0723     |  15.8 |  0.16
Other   |            | 20.49      |            |       |  5.07

Nlocal:    112.5 ave 127 max 88 min
Histogram: 1 1 3 2 3 9 11 9 6 3
Nghost:    6652.71 ave 6768 max 6536 min
Histogram: 1 4 4 7 6 9 8 7 1 1
Neighs:    81646.5 ave 95250 max 62137 min
Histogram: 3 0 1 4 3 11 13 7 5 1

Total # of neighbors = 3919031
Ave neighs/atom = 725.746
Ave special neighs/atom = 10.4444
Neighbor list builds = 9
Dangerous builds = 0
# >>>>>>>>>  Equilibration run <<<<<<<<<<<<<<<<<<<<<<<<<<<<<<<<<<

fix             NVT_equib all nvt temp ${simulationTemp} ${simulationTemp} 100
fix             NVT_equib all nvt temp 293 ${simulationTemp} 100
fix             NVT_equib all nvt temp 293 293 100

print           "Step Density Temperature Pressure KinEng PotEng TotEng" file Properties_equib_293k.txt
Step Density Temperature Pressure KinEng PotEng TotEng
fix             PRINT_equib all print ${printfreq} "$(v_step) $(v_density) $(v_temp) $(v_press) $(v_pe) $(v_ke) $(v_etotal) $(v_enthalpy)" append Properties_equib_293k.txt title ""
fix             PRINT_equib all print 1000 "$(v_step) $(v_density) $(v_temp) $(v_press) $(v_pe) $(v_ke) $(v_etotal) $(v_enthalpy)" append Properties_equib_293k.txt title ""
# The 'print' and fix print' commands as used above will create a file named 'Properties_equib.txt' which allows you to quickly make plots to test for equilibration


run             ${NVT_equib}
run             100000
Ewald initialization ...
  using 12-bit tables for long-range coulomb (src/kspace.cpp:332)
  G vector (1/distance) = 0.142485
  estimated absolute RMS force accuracy = 0.0338118
  estimated relative force accuracy = 0.000101823
  KSpace vectors: actual max1d max3d = 128 4 364
                  kxmax kymax kzmax  = 4 4 4
Per MPI rank memory allocation (min/avg/max) = 22.51 | 22.56 | 22.89 Mbytes
Step Volume Temp Press KinEng PotEng TotEng Enthalpy E_vdwl E_coul E_pair E_bond E_angle E_dihed E_impro E_mol E_long E_tail Lx Ly Lz Xy Xz Yz Density 
  150518    52505.208    290.21714    20949.714    4670.5786    2547.5864    7218.1649    23260.086   -1728.6231    3917.1371    -2301.583    1634.2679    2455.4029    759.49855            0    4849.1693    -4490.097   -51.832201      37.4456      37.4456      37.4456            0            0            0   0.82372725 
151000 0.82372724821372100834 291.27981062821697833 1745.7056578762299068 2261.6733187163399634 4687.6805993796097027 6949.3539180959596706 8286.101140076190859
  151000    52505.208    291.27981    1745.7057    4687.6806    2261.6733    6949.3539    8286.1011   -1883.9052    3898.9719   -2474.3488    1569.4507    2385.5333    781.03808            0    4736.0221   -4489.4155   -51.832201      37.4456      37.4456      37.4456            0            0            0   0.82372725 
152000 0.82372724821372100834 288.76830010531000426 461.54590495097500025 2243.3177168900601828 4647.261872355669766 6890.5795892457299487 7244.0012577131201397
  152000    52505.208     288.7683     461.5459    4647.2619    2243.3177    6890.5796    7244.0013    -1863.484    3861.0992   -2491.9865    1580.1368    2375.3518    779.81556            0    4735.3042   -4489.6017   -51.832201      37.4456      37.4456      37.4456            0            0            0   0.82372725 
153000 0.82372724821372100834 292.60793906218299298 227.07230790960198874 2283.7543849067001247 4709.0546928327803471 6992.8090777394900215 7166.6862003903197547
  153000    52505.208    292.60794    227.07231    4709.0547    2283.7544    6992.8091    7166.6862   -1909.9072    3890.7242   -2509.2384     1609.673     2402.454    780.86571            0    4792.9928   -4490.0554   -51.832201      37.4456      37.4456      37.4456            0            0            0   0.82372725 
154000 0.82372724821372100834 285.54104618679701844 -619.72489048064596773 2198.4280922144198485 4595.3244052498803285 6793.7524974643001769 6319.2077069353899788
  154000    52505.208    285.54105   -619.72489    4595.3244    2198.4281    6793.7525    6319.2077   -1940.9781    3895.8728    -2534.185    1574.3279    2390.7579    767.52729            0     4732.613   -4489.0797   -51.832201      37.4456      37.4456      37.4456            0            0            0   0.82372725 
155000 0.82372724821372100834 297.54211127870200926 1851.5005708828900879 2213.9224803853699086 4788.462267712369794 7002.3847480977401574 8420.1427953698803321
  155000    52505.208    297.54211    1851.5006    4788.4623    2213.9225    7002.3847    8420.1428   -1906.1225    3889.3407   -2504.9788    1608.4001    2349.4184    761.08279            0    4718.9013   -4488.1971   -51.832201      37.4456      37.4456      37.4456            0            0            0   0.82372725 
156000 0.82372724821372100834 294.41074632236097841 644.95254614615805622 2257.9745356861699292 4738.0679794032803329 6996.042515089439803 7489.9049944141697779
  156000    52505.208    294.41075    644.95255     4738.068    2257.9745    6996.0425     7489.905   -1925.1692    3889.8814   -2522.5376    1629.2382    2385.5756    765.69825            0    4780.5121   -4487.2498   -51.832201      37.4456      37.4456      37.4456            0            0            0   0.82372725 
157000 0.82372724821372100834 288.01117735643697415 -754.52138122064695835 2272.517753113910203 4635.0771980605895806 6907.5949511745002383 6329.8318238564497733
  157000    52505.208    288.01118   -754.52138    4635.0772    2272.5178     6907.595    6329.8318   -1921.2217    3901.8583   -2507.2317    1599.4704    2397.4076    782.87143            0    4779.7495   -4487.8683   -51.832201      37.4456      37.4456      37.4456            0            0            0   0.82372725 
158000 0.82372724821372100834 293.74153604911299453 -564.64316106199396472 2282.3954974449397923 4727.2981151684698489 7009.6936126133996368 6577.3268080754596667
  158000    52505.208    293.74154   -564.64316    4727.2981    2282.3955    7009.6936    6577.3268   -1914.9477    3882.3761   -2522.3202    1612.8273    2412.8956    778.99278            0    4804.7157   -4489.7486   -51.832201      37.4456      37.4456      37.4456            0            0            0   0.82372725 
159000 0.82372724821372100834 294.96254472300802263 428.30327451996498667 2216.4784010436401331 4746.9482881754702248 6963.4266892191099032 7291.3933254022804249
  159000    52505.208    294.96254    428.30327    4746.9483    2216.4784    6963.4267    7291.3933   -1953.0393    3910.9673   -2532.2229    1608.1234    2375.9191    764.65873            0    4748.7013   -4490.1509   -51.832201      37.4456      37.4456      37.4456            0            0            0   0.82372725 
160000 0.82372724821372100834 293.53838915219699857 -1161.223587115159944 2334.2911926946999301 4724.0287922262195934 7058.3199849209304375 6169.1309070425004393
  160000    52505.208    293.53839   -1161.2236    4724.0288    2334.2912      7058.32    6169.1309   -1914.2082    3870.3909   -2533.9903    1703.6341    2400.3449    764.30238            0    4868.2815   -4490.1729   -51.832201      37.4456      37.4456      37.4456            0            0            0   0.82372725 
161000 0.82372724821372100834 299.8000537236330274 889.74297218832396084 2301.6857900564300508 4824.8002238885801489 7126.4860139450001952 7807.7929920045899053
  161000    52505.208    299.80005    889.74297    4824.8002    2301.6858     7126.486     7807.793   -1889.3668    3862.3392   -2516.9969    1619.9975     2419.757    778.92822            0    4818.6827   -4489.9693   -51.832201      37.4456      37.4456      37.4456            0            0            0   0.82372725 
162000 0.82372724821372100834 297.03292940807102696 2011.9844704555800945 2197.4650119675197857 4780.267803525650379 6977.7328154931701647 8518.3789372573792207
  162000    52505.208    297.03293    2011.9845    4780.2678     2197.465    6977.7328    8518.3789   -1929.2003    3899.6491   -2519.4693    1565.3545    2364.5671    787.01275            0    4716.9343   -4489.9181   -51.832201      37.4456      37.4456      37.4456            0            0            0   0.82372725 
163000 0.82372724821372100834 291.92861909615902505 1277.3071395795000171 2130.5192460723901604 4698.1221293343696743 6828.6413754067498303 7806.7196457868903963
  163000    52505.208    291.92862    1277.3071    4698.1221    2130.5192    6828.6414    7806.7196   -1942.5853    3863.4594   -2569.8734    1594.1541    2351.4617    754.77682            0    4700.3927   -4490.7475   -51.832201      37.4456      37.4456      37.4456            0            0            0   0.82372725 
164000 0.82372724821372100834 297.90279700113501349 -684.42933847186395724 2192.508369271869924 4794.2669249588798266 6986.7752942307497506 6462.6840691630095534
  164000    52505.208     297.9028   -684.42934    4794.2669    2192.5084    6986.7753    6462.6841   -1924.7579    3864.8892   -2551.0526    1613.6485    2352.9614     776.9511            0     4743.561   -4491.1839   -51.832201      37.4456      37.4456      37.4456            0            0            0   0.82372725 
165000 0.82372724821372100834 298.59512768106401381 2288.4037444010100444 2232.9133166745400558 4805.4088749953598381 7038.3221916699003486 8790.6321153363696794
  165000    52505.208    298.59513    2288.4037    4805.4089    2232.9133    7038.3222    8790.6321   -1896.1182    3856.8056    -2530.279    1640.9953    2378.5051    743.69192            0    4763.1923   -4490.9664   -51.832201      37.4456      37.4456      37.4456            0            0            0   0.82372725 
166000 0.82372724821372100834 293.57027852858402639 -1577.9614721649600142 2237.9199689781198686 4724.542000507620287 6962.4619694857401555 5754.1622742928502703
  166000    52505.208    293.57028   -1577.9615     4724.542      2237.92     6962.462    5754.1623   -1926.8842    3887.3676   -2528.7166    1604.7695    2385.5313    776.33572            0    4766.6365      -4489.2   -51.832201      37.4456      37.4456      37.4456            0            0            0   0.82372725 
167000 0.82372724821372100834 292.9561485328339927 889.74106330083702687 2295.4601784066398977 4714.658564850449693 7010.1187432570895908 7691.4242596154899729
  167000    52505.208    292.95615    889.74106    4714.6586    2295.4602    7010.1187    7691.4243   -1919.5479    3875.9061   -2533.1929    1613.1885    2434.1837    781.28088            0    4828.6531   -4489.5512   -51.832201      37.4456      37.4456      37.4456            0            0            0   0.82372725 
168000 0.82372724821372100834 287.65304764671299154 -1086.4811540757600596 2335.8350134328002241 4629.3136757322999983 6965.148689165090218 6133.1924782815603976
  168000    52505.208    287.65305   -1086.4812    4629.3137     2335.835    6965.1487    6133.1925   -1875.6792    3836.3633   -2530.0253    1637.9845    2430.9728    796.90312            0    4865.8603   -4490.7094   -51.832201      37.4456      37.4456      37.4456            0            0            0   0.82372725 
169000 0.82372724821372100834 291.79694194536301666 -306.76652027870397887 2260.7528764389799107 4696.0029971369203849 6956.7558735759103001 6721.854135170599875
  169000    52505.208    291.79694   -306.76652     4696.003    2260.7529    6956.7559    6721.8541   -1912.2286    3859.4666   -2541.2054     1585.707    2433.7401    782.51122            0    4801.9583   -4488.4434   -51.832201      37.4456      37.4456      37.4456            0            0            0   0.82372725 
170000 0.82372724821372100834 293.96946542148401704 -1060.4091451727699678 2282.2069050535301358 4730.9662722391103671 7013.1731772926395934 6201.1812056926701189
  170000    52505.208    293.96947   -1060.4091    4730.9663    2282.2069    7013.1732    6201.1812   -1923.9592    3859.3043   -2552.8739     1623.775    2414.5223    796.78351            0    4835.0808    -4488.219   -51.832201      37.4456      37.4456      37.4456            0            0            0   0.82372725 
171000 0.82372724821372100834 295.33361079043601194 -920.67194371233995298 2242.4431377318301202 4752.9200003982195994 6995.3631381300401699 6290.3727764617096909
  171000    52505.208    295.33361   -920.67194      4752.92    2242.4431    6995.3631    6290.3728   -1925.5217    3882.9635   -2532.2654    1581.1258    2401.8033    791.77944            0    4774.7086   -4489.7073   -51.832201      37.4456      37.4456      37.4456            0            0            0   0.82372725 
172000 0.82372724821372100834 287.76852388591402132 -123.40808000728600291 2228.5979612923802051 4631.1720802850395557 6859.7700415774197609 6765.2722049144203993
  172000    52505.208    287.76852   -123.40808    4631.1721     2228.598      6859.77    6765.2722   -1948.4584     3888.199   -2548.5396    1609.2777    2408.0767    759.78318            0    4777.1376   -4488.2803   -51.832201      37.4456      37.4456      37.4456            0            0            0   0.82372725 
173000 0.82372724821372100834 287.94391708666199747 195.69432064022299755 2234.1988096147101714 4633.9947520748801253 6868.193561689589842 7018.0434738399399066
  173000    52505.208    287.94392    195.69432    4633.9948    2234.1988    6868.1936    7018.0435   -1921.6383    3853.5648   -2556.6721    1613.2745    2419.4442    758.15219            0    4790.8709   -4488.5986   -51.832201      37.4456      37.4456      37.4456            0            0            0   0.82372725 
174000 0.82372724821372100834 291.49374789410597941 1024.3274611752399323 2309.2799709406399415 4691.1235759753099046 7000.4035469159498462 7784.7665246872802527
  174000    52505.208    291.49375    1024.3275    4691.1236      2309.28    7000.4035    7784.7665   -1907.4781    3871.5748   -2525.3658    1626.8041     2425.078     782.7636            0    4834.6457   -4489.4624   -51.832201      37.4456      37.4456      37.4456            0            0            0   0.82372725 
175000 0.82372724821372100834 292.11239380978099689 -709.75320990036198054 2170.3436707125902103 4701.079688108659866 6871.4233588212500763 6327.9407692190097805
  175000    52505.208    292.11239   -709.75321    4701.0797    2170.3437    6871.4234    6327.9408   -1959.3009    3880.5549   -2567.4059    1630.5378    2360.4617    746.75006            0    4737.7495   -4488.6598   -51.832201      37.4456      37.4456      37.4456            0            0            0   0.82372725 
176000 0.82372724821372100834 291.08817721059898531 -3.0180784269726701474 2227.3124918576399978 4684.5965673898299428 6911.9090592474603909 6909.5980121733000487
  176000    52505.208    291.08818   -3.0180784    4684.5966    2227.3125    6911.9091     6909.598   -1905.3699    3870.3015    -2524.591    1593.4254    2419.5775    738.90061            0    4751.9035   -4489.5226   -51.832201      37.4456      37.4456      37.4456            0            0            0   0.82372725 
177000 0.82372724821372100834 293.45767416806398842 -606.77032420159196136 2191.6239554509002119 4722.729814228469877 6914.3537696793600844 6449.728738765919843
  177000    52505.208    293.45767   -606.77032    4722.7298     2191.624    6914.3538    6449.7287   -1916.5665    3869.3781   -2536.9801    1546.7075    2440.9025    740.99399            0     4728.604   -4489.7916   -51.832201      37.4456      37.4456      37.4456            0            0            0   0.82372725 
178000 0.82372724821372100834 300.28278275404801434 -26.693917672905499217 2365.4948809326101582 4832.5689721095795903 7198.0638530422002077 7177.6233966960598991
  178000    52505.208    300.28278   -26.693918     4832.569    2365.4949    7198.0639    7177.6234   -1930.8893    3891.1806   -2528.1319    1648.7587    2480.1522    764.71584            0    4893.6268   -4488.4231   -51.832201      37.4456      37.4456      37.4456            0            0            0   0.82372725 
179000 0.82372724821372100834 289.10740375371000255 86.977462824919797413 2289.9304831518597894 4652.7192007930798354 6942.6496839449300751 7009.2513365669101404
  179000    52505.208     289.1074    86.977463    4652.7192    2289.9305    6942.6497    7009.2513   -1923.0114    3869.8392   -2541.9922    1614.4078    2432.2363    785.27854            0    4831.9226     -4488.82   -51.832201      37.4456      37.4456      37.4456            0            0            0   0.82372725 
180000 0.82372724821372100834 287.49679524132500319 253.18437129635799465 2230.0773136694401728 4626.7990442933196391 6856.8763579627602667 7050.7483910012297201
  180000    52505.208     287.4968    253.18437     4626.799    2230.0773    6856.8764    7050.7484   -1922.6923      3890.82   -2520.7475    1552.0774    2419.4548    779.29257            0    4750.8248   -4488.8752   -51.832201      37.4456      37.4456      37.4456            0            0            0   0.82372725 
181000 0.82372724821372100834 297.56539183256700198 -121.26573943771299469 2172.8781577847198605 4788.8369308256897057 6961.7150886104100209 6868.8577162444698843
  181000    52505.208    297.56539   -121.26574    4788.8369    2172.8782    6961.7151    6868.8577   -1962.6744    3894.3333   -2556.9934    1519.7222    2448.6815     761.4679            0    4729.8716   -4488.6523   -51.832201      37.4456      37.4456      37.4456            0            0            0   0.82372725 
182000 0.82372724821372100834 292.77246304670399013 352.21295916680202254 2165.5371731368600194 4711.7024420492798527 6877.2396151861403268 7146.9412642513298124
  182000    52505.208    292.77246    352.21296    4711.7024    2165.5372    6877.2396    7146.9413   -1927.6376    3848.1221   -2567.0221    1599.9348    2354.5511    778.07338            0    4732.5593   -4487.5067   -51.832201      37.4456      37.4456      37.4456            0            0            0   0.82372725 
183000 0.82372724821372000914 293.50305472092298942 -259.95370337619800694 2255.9540277962200889 4723.4601413210402825 6979.4141691172599167 6780.3586242928504362
  183000    52505.208    293.50305    -259.9537    4723.4601     2255.954    6979.4142    6780.3586   -1935.9444    3901.4305   -2522.3153    1584.8266    2439.4273    754.01542            0    4778.2694   -4487.8014   -51.832201      37.4456      37.4456      37.4456            0            0            0   0.82372725 
184000 0.82372724821372100834 298.21017340256798889 1633.9972724239401032 2224.7528855233599643 4799.2136543274400537 7023.9665398507995633 8275.1747860870291333
  184000    52505.208    298.21017    1633.9973    4799.2137    2224.7529    7023.9665    8275.1748   -1913.6247    3887.1865    -2515.153    1604.2271    2375.9896    759.68908            0    4739.9058   -4488.7147   -51.832201      37.4456      37.4456      37.4456            0            0            0   0.82372725 
185000 0.82372724821372100834 289.04410230201301601 -1050.1126450803199077 2218.4123486314001639 4651.7004656243298086 6870.1128142557299725 6066.0052290255898697
  185000    52505.208     289.0441   -1050.1126    4651.7005    2218.4123    6870.1128    6066.0052   -1927.0499    3855.5161   -2560.0871    1632.6568    2386.1122     759.7305            0    4778.4995   -4488.5533   -51.832201      37.4456      37.4456      37.4456            0            0            0   0.82372725 
186000 0.82372724821372100834 291.95422415302897434 34.500033322320803109 2103.6729973268797949 4698.5342015891401388 6802.2071989160203884 6828.6250680990397086
  186000    52505.208    291.95422    34.500033    4698.5342     2103.673    6802.2072    6828.6251   -1899.6132    3822.3493   -2567.6511    1572.8565    2369.3651    729.10258            0    4671.3241   -4490.3872   -51.832201      37.4456      37.4456      37.4456            0            0            0   0.82372725 
187000 0.82372724821372100834 293.20062159403897795 1533.2179580500198881 2291.2120528473601553 4718.5929660147903633 7009.8050188621500638 8183.8430572144798134
[...]
253000 0.82372724821372100834 292.9480322093180007 -349.86518543347699506 2277.3724524625999948 4714.527945662660386 6991.900398125259926 6723.9965206384003977
  253000    52505.208    292.94803   -349.86519    4714.5279    2277.3725    6991.9004    6723.9965   -1980.2495    3928.4148   -2541.1568    1660.5045    2452.3521     705.6726            0    4818.5292   -4489.3221   -51.832201      37.4456      37.4456      37.4456            0            0            0   0.82372725 
254000 0.82372724821372100834 293.88369298796197882 -1998.4954304876400784 2199.7019015272198885 4729.5859027184196748 6929.2878042456395633 5398.9707070927297536
254000 0.82372724821372100834 293.88369298796197882 -1998.4954304876400784 2199.7019015272198885 4729.5859027184196748 6929.2878042456395633 5398.9707070927297536
  254000    52505.208    293.88369   -1998.4954    4729.5859    2199.7019    6929.2878    5398.9707   -1950.5127     3914.016   -2525.1433    1627.2804    2397.9171     699.6478            0    4724.8452   -4488.6466   -51.832201      37.4456      37.4456      37.4456            0            0            0   0.82372725 
255000 0.82372724821372100834 302.24153371442901062 -1150.6223989277900728 2118.6507930193201901 4864.0919220050500371 6982.7427150243702272 6101.671333731969753
255000 0.82372724821372100834 302.24153371442901062 -1150.6223989277900728 2118.6507930193201901 4864.0919220050500371 6982.7427150243702272 6101.671333731969753
  255000    52505.208    302.24153   -1150.6224    4864.0919    2118.6508    6982.7427    6101.6713   -1929.3493    3879.4925   -2540.1326    1612.5355    2346.8701     699.3778            0    4658.7834   -4490.2758   -51.832201      37.4456      37.4456      37.4456            0            0            0   0.82372725 
256000 0.82372724821372100834 298.9962944143269965 -1027.1957563625001058 2250.8699005445801049 4811.8650090768096561 7062.7349096213902158 6276.1755789849003122
256000 0.82372724821372100834 298.9962944143269965 -1027.1957563625001058 2250.8699005445801049 4811.8650090768096561 7062.7349096213902158 6276.1755789849003122
  256000    52505.208    298.99629   -1027.1958     4811.865    2250.8699    7062.7349    6276.1756   -1961.4684    3935.0405    -2516.196    1605.2555    2439.1446    722.66581            0    4767.0659   -4489.7681   -51.832201      37.4456      37.4456      37.4456            0            0            0   0.82372725 
257000 0.82372724821372100834 295.0508070339209894 -1834.9694353193699499 2235.2177075024401347 4748.3687282726696139 6983.5864357751097486 5578.4868509654197624
257000 0.82372724821372100834 295.0508070339209894 -1834.9694353193699499 2235.2177075024401347 4748.3687282726696139 6983.5864357751097486 5578.4868509654197624
  257000    52505.208    295.05081   -1834.9694    4748.3687    2235.2177    6983.5864    5578.4869   -1949.6004    3916.5835   -2522.1033     1673.801    2388.2923    695.22772            0    4757.3211   -4489.0864   -51.832201      37.4456      37.4456      37.4456            0            0            0   0.82372725 
258000 0.82372724821372100834 288.58679313888598017 107.89495718661399337 2164.4119044266099081 4644.3408093292900958 6808.7527137559000039 6891.3716155358997639
258000 0.82372724821372100834 288.58679313888598017 107.89495718661399337 2164.4119044266099081 4644.3408093292900958 6808.7527137559000039 6891.3716155358997639
  258000    52505.208    288.58679    107.89496    4644.3408    2164.4119    6808.7527    6891.3716   -1989.1795    3954.4759   -2524.8506    1610.9846    2389.8715    688.40635            0    4689.2625   -4490.1469   -51.832201      37.4456      37.4456      37.4456            0            0            0   0.82372725 
259000 0.82372724821372100834 293.3664780769159961 -1199.9003813568199348 2192.8333597474402268 4721.2621596516100908 6914.0955193990503176 5995.290281989739924
259000 0.82372724821372100834 293.3664780769159961 -1199.9003813568199348 2192.8333597474402268 4721.2621596516100908 6914.0955193990503176 5995.290281989739924
  259000    52505.208    293.36648   -1199.9004    4721.2622    2192.8334    6914.0955    5995.2903   -1928.6164     3895.542   -2523.4491    1615.9539    2402.0204     698.3082            0    4716.2825   -4490.3747   -51.832201      37.4456      37.4456      37.4456            0            0            0   0.82372725 
260000 0.82372724821372100834 288.37618632483298597 -152.26552888560598831 2153.5519312838500809 4640.9514310053800727 6794.5033622892296989 6677.908378580000317
260000 0.82372724821372100834 288.37618632483298597 -152.26552888560598831 2153.5519312838500809 4640.9514310053800727 6794.5033622892296989 6677.908378580000317
  260000    52505.208    288.37619   -152.26553    4640.9514    2153.5519    6794.5034    6677.9084    -1953.317    3898.7029   -2544.9413    1650.7961    2339.3701    708.32707            0    4698.4932   -4490.3272   -51.832201      37.4456      37.4456      37.4456            0            0            0   0.82372725 
261000 0.82372724821372000914 290.87995635993098631 -452.36737338706598166 2134.421222503539866 4681.245587313460419 6815.666809817000285 6469.2734605365003517
261000 0.82372724821372000914 290.87995635993098631 -452.36737338706598166 2134.421222503539866 4681.245587313460419 6815.666809817000285 6469.2734605365003517
  261000    52505.208    290.87996   -452.36737    4681.2456    2134.4212    6815.6668    6469.2735   -1958.9088    3892.5014   -2555.7222    1622.3791    2379.3869    688.37739            0    4690.1434   -4489.3147   -51.832201      37.4456      37.4456      37.4456            0            0            0   0.82372725 
262000 0.82372724821372100834 287.74065840734101585 1225.1714751124900431 2262.1888802008202219 4630.7236301743996592 6892.9125103752203358 7831.0686986289001652
262000 0.82372724821372100834 287.74065840734101585 1225.1714751124900431 2262.1888802008202219 4630.7236301743996592 6892.9125103752203358 7831.0686986289001652
  262000    52505.208    287.74066    1225.1715    4630.7236    2262.1889    6892.9125    7831.0687   -1926.5419    3911.1731   -2503.5971     1615.011    2419.5987    731.17627            0     4765.786   -4488.2283   -51.832201      37.4456      37.4456      37.4456            0            0            0   0.82372725 
263000 0.82372724821372100834 293.47006598172799841 -1559.1360583952200614 2249.2159552469202026 4722.9292405614396557 6972.1451958083598583 5778.2607712802600872
263000 0.82372724821372100834 293.47006598172799841 -1559.1360583952200614 2249.2159552469202026 4722.9292405614396557 6972.1451958083598583 5778.2607712802600872
  263000    52505.208    293.47007   -1559.1361    4722.9292     2249.216    6972.1452    5778.2608    -1931.725    3892.3851   -2528.5473    1619.9813    2440.0482    717.73369            0    4777.7632   -4489.2074   -51.832201      37.4456      37.4456      37.4456            0            0            0   0.82372725 
264000 0.82372724821372100834 288.55523624105501312 -1083.1199099509899497 2151.6688888373000736 4643.8329517561296598 6795.501840593419729 5966.1194506320598521
264000 0.82372724821372100834 288.55523624105501312 -1083.1199099509899497 2151.6688888373000736 4643.8329517561296598 6795.501840593419729 5966.1194506320598521
  264000    52505.208    288.55524   -1083.1199     4643.833    2151.6689    6795.5018    5966.1195   -1932.1329    3855.6573   -2565.7605    1623.1783    2385.6958    708.55519            0    4717.4294   -4489.2848   -51.832201      37.4456      37.4456      37.4456            0            0            0   0.82372725 
265000 0.82372724821372100834 293.83984865906802497 1485.6221166236900899 2190.0773921416798657 4728.8802986825503467 6918.9576908242297577 8056.5499466258797838
265000 0.82372724821372100834 293.83984865906802497 1485.6221166236900899 2190.0773921416798657 4728.8802986825503467 6918.9576908242297577 8056.5499466258797838
  265000    52505.208    293.83985    1485.6221    4728.8803    2190.0774    6918.9577    8056.5499   -1934.0374    3876.6833   -2547.5369    1617.4694    2418.3253    701.81966            0    4737.6143   -4490.1828   -51.832201      37.4456      37.4456      37.4456            0            0            0   0.82372725 
266000 0.82372724821372100834 296.45406937976497375 806.72699667248696187 2234.5818354821599314 4770.951981331870229 7005.5338168140297057 7623.2725901478697779
266000 0.82372724821372100834 296.45406937976497375 806.72699667248696187 2234.5818354821599314 4770.951981331870229 7005.5338168140297057 7623.2725901478697779
  266000    52505.208    296.45407      806.727     4770.952    2234.5818    7005.5338    7623.2726   -1901.2308    3890.8535   -2499.8214    1607.7883    2424.8743    701.74051            0    4734.4032   -4489.4441   -51.832201      37.4456      37.4456      37.4456            0            0            0   0.82372725 
267000 0.82372724821372100834 296.73679651937800372 93.117574789674407043 2103.5143148332899727 4775.5020204314696457 6879.0163352647696229 6950.3196840601503936
267000 0.82372724821372100834 296.73679651937800372 93.117574789674407043 2103.5143148332899727 4775.5020204314696457 6879.0163352647696229 6950.3196840601503936
  267000    52505.208     296.7368    93.117575     4775.502    2103.5143    6879.0163    6950.3197   -1963.8757    3871.3095   -2582.0218    1611.8334    2336.3601    737.34259            0    4685.5361   -4489.4555   -51.832201      37.4456      37.4456      37.4456            0            0            0   0.82372725 
268000 0.82372724821372100834 292.31323412752999502 -533.26799939174895826 2196.3361867901799087 4704.3118903648201012 6900.6480771549995552 6492.3063194585201927
268000 0.82372724821372100834 292.31323412752999502 -533.26799939174895826 2196.3361867901799087 4704.3118903648201012 6900.6480771549995552 6492.3063194585201927
  268000    52505.208    292.31323     -533.268    4704.3119    2196.3362    6900.6481    6492.3063   -1914.4684    3871.2345   -2532.1753    1630.8863    2378.3788    719.24642            0    4728.5115   -4488.9414   -51.832201      37.4456      37.4456      37.4456            0            0            0   0.82372725 
269000 0.82372724821372100834 288.40822435255597611 946.00023279442700641 2117.8819169769799373 4641.467031591219893 6759.3489485682002851 7483.7340575212401745
269000 0.82372724821372100834 288.40822435255597611 946.00023279442700641 2117.8819169769799373 4641.467031591219893 6759.3489485682002851 7483.7340575212401745
  269000    52505.208    288.40822    946.00023     4641.467    2117.8819    6759.3489    7483.7341   -1916.4044    3884.4195   -2521.2712     1569.384    2345.5319    724.23723            0    4639.1531   -4489.2863   -51.832201      37.4456      37.4456      37.4456            0            0            0   0.82372725 
270000 0.82372724821372100834 295.02900758631500366 -408.59957970553102768 2155.7048876712901802 4748.0179011851396353 6903.7227888564302702 6590.8439535216402874
270000 0.82372724821372100834 295.02900758631500366 -408.59957970553102768 2155.7048876712901802 4748.0179011851396353 6903.7227888564302702 6590.8439535216402874
  270000    52505.208    295.02901   -408.59958    4748.0179    2155.7049    6903.7228     6590.844   -1990.3471    3871.5046   -2607.8351    1618.0036    2405.3116    740.22485            0      4763.54   -4488.9926   -51.832201      37.4456      37.4456      37.4456            0            0            0   0.82372725 
271000 0.82372724821372100834 287.3465005187870247 -1003.5116851143000076 2217.6056523869201555 4624.3802921885599062 6841.9859445754800618 6073.5623267399196266
271000 0.82372724821372100834 287.3465005187870247 -1003.5116851143000076 2217.6056523869201555 4624.3802921885599062 6841.9859445754800618 6073.5623267399196266
  271000    52505.208     287.3465   -1003.5117    4624.3803    2217.6057    6841.9859    6073.5623   -1938.4305    3865.0603   -2562.8874    1687.7639    2373.7478    718.98134            0     4780.493   -4489.5172   -51.832201      37.4456      37.4456      37.4456            0            0            0   0.82372725 
272000 0.82372724821372100834 289.61114424178799709 -2018.0208138879499984 2140.5298632542298947 4660.8260946694299491 6801.3559579236598438 5256.0875991415796307
272000 0.82372724821372100834 289.61114424178799709 -2018.0208138879499984 2140.5298632542298947 4660.8260946694299491 6801.3559579236598438 5256.0875991415796307
  272000    52505.208    289.61114   -2018.0208    4660.8261    2140.5299     6801.356    5256.0876   -1963.1686    3884.1731   -2568.2342     1645.948    2334.1873    728.62872            0     4708.764   -4489.2387   -51.832201      37.4456      37.4456      37.4456            0            0            0   0.82372725 
273000 0.82372724821372000914 293.51369965456098043 435.1033099881900057 2212.4887229413598106 4723.6314544264496362 6936.1201773678103564 7269.2938359837198732
273000 0.82372724821372000914 293.51369965456098043 435.1033099881900057 2212.4887229413598106 4723.6314544264496362 6936.1201773678103564 7269.2938359837198732
  273000    52505.208     293.5137    435.10331    4723.6315    2212.4887    6936.1202    7269.2938   -1943.8375    3876.9103   -2556.3873    1680.4468    2378.9795     709.4497            0     4768.876   -4489.4601   -51.832201      37.4456      37.4456      37.4456            0            0            0   0.82372725 
274000 0.82372724821372100834 290.80970981056901792 -1058.409716589970003 2132.6484972114299126 4680.1150819553804467 6812.7635791668099046 6002.3026392110095912
274000 0.82372724821372100834 290.80970981056901792 -1058.409716589970003 2132.6484972114299126 4680.1150819553804467 6812.7635791668099046 6002.3026392110095912
  274000    52505.208    290.80971   -1058.4097    4680.1151    2132.6485    6812.7636    6002.3026    -1957.423    3881.3207   -2565.3064    1626.8328    2339.5051    731.61698            0    4697.9549    -4489.204   -51.832201      37.4456      37.4456      37.4456            0            0            0   0.82372725 
275000 0.82372724821372100834 294.47196732468000846 -295.51406218116102309 2120.7078758621901216 4739.053233081610415 6859.761108943799627 6633.4757670280596358
275000 0.82372724821372100834 294.47196732468000846 -295.51406218116102309 2120.7078758621901216 4739.053233081610415 6859.761108943799627 6633.4757670280596358
  275000    52505.208    294.47197   -295.51406    4739.0532    2120.7079    6859.7611    6633.4758   -1923.6573    3821.3519   -2591.0895    1615.4952    2381.3771    714.92505            0    4711.7974   -4488.7841   -51.832201      37.4456      37.4456      37.4456            0            0            0   0.82372725 
276000 0.82372724821372100834 297.2347948943329925 84.251729311505499709 2241.3317882755900428 4783.5165042220396572 7024.8482924976296999 7089.3627566606101027
276000 0.82372724821372100834 297.2347948943329925 84.251729311505499709 2241.3317882755900428 4783.5165042220396572 7024.8482924976296999 7089.3627566606101027
  276000    52505.208    297.23479    84.251729    4783.5165    2241.3318    7024.8483    7089.3628   -1920.7418     3832.525   -2578.2271    1659.0886    2442.7516    717.71865            0    4819.5589   -4490.0102   -51.832201      37.4456      37.4456      37.4456            0            0            0   0.82372725 
277000 0.82372724821372100834 291.95058225375902339 -420.17058896076497376 2201.0563185155601786 4698.4755910712401601 6899.5319095867898795 6577.7927521194296787
277000 0.82372724821372100834 291.95058225375902339 -420.17058896076497376 2201.0563185155601786 4698.4755910712401601 6899.5319095867898795 6577.7927521194296787
  277000    52505.208    291.95058   -420.17059    4698.4756    2201.0563    6899.5319    6577.7928     -1950.57    3908.6112   -2531.4928    1636.5674    2368.7001    727.28165            0    4732.5491    -4489.534   -51.832201      37.4456      37.4456      37.4456            0            0            0   0.82372725 
278000 0.82372724821372000914 287.05451968193801804 -454.70362207671900023 2155.1532523301098081 4619.6813296983800683 6774.8345820285003356 6426.6522862943702421
278000 0.82372724821372000914 287.05451968193801804 -454.70362207671900023 2155.1532523301098081 4619.6813296983800683 6774.8345820285003356 6426.6522862943702421
  278000    52505.208    287.05452   -454.70362    4619.6813    2155.1533    6774.8346    6426.6523    -1918.687    3825.9946    -2582.024    1642.9225    2371.6033    722.65154            0    4737.1773   -4489.3316   -51.832201      37.4456      37.4456      37.4456            0            0            0   0.82372725 
279000 0.82372724821372100834 294.70493465957099488 -473.30286804490202712 2185.6070023715801653 4742.8024680653397809 6928.4094704369199462 6565.9850885488503991
279000 0.82372724821372100834 294.70493465957099488 -473.30286804490202712 2185.6070023715801653 4742.8024680653397809 6928.4094704369199462 6565.9850885488503991
  279000    52505.208    294.70493   -473.30287    4742.8025     2185.607    6928.4095    6565.9851    -1918.337    3881.2562   -2525.9824    1571.2648    2408.2461    732.07844            0    4711.5894   -4488.9015   -51.832201      37.4456      37.4456      37.4456            0            0            0   0.82372725 
280000 0.82372724821372100834 293.86110937395602605 -1525.0471700411799247 2100.4598213679200853 4729.2224557324698253 6829.6822771003899106 5661.9008938278802816
280000 0.82372724821372100834 293.86110937395602605 -1525.0471700411799247 2100.4598213679200853 4729.2224557324698253 6829.6822771003899106 5661.9008938278802816
  280000    52505.208    293.86111   -1525.0472    4729.2225    2100.4598    6829.6823    5661.9009   -1952.4971    3847.6359   -2593.0415    1601.5862     2369.316    722.59913            0    4693.5013   -4488.1803   -51.832201      37.4456      37.4456      37.4456            0            0            0   0.82372725 
  280518    52505.208    289.72664    107.22875    4662.6849    2114.1702    6776.8551    6858.9639    -1934.568      3904.77   -2517.6868    1556.4913    2348.1109    727.25477            0     4631.857   -4487.8888   -51.832201      37.4456      37.4456      37.4456            0            0            0   0.82372725 
Loop time of 135.147 on 48 procs for 30000 steps with 5400 atoms

Performance: 19.179 ns/day, 1.251 hours/ns, 221.980 timesteps/s
69.2% CPU use with 48 MPI tasks x 1 OpenMP threads

MPI task timing breakdown:
Section |  min time  |  avg time  |  max time  |%varavg| %total
---------------------------------------------------------------
Pair    | 51.995     | 59.123     | 67.004     |  46.6 | 43.75
Bond    | 2.1664     | 2.4681     | 2.8597     |  11.6 |  1.83
Kspace  | 13.02      | 21.848     | 29.729     |  82.5 | 16.17
Neigh   | 12.048     | 12.552     | 12.983     |   8.8 |  9.29
Comm    | 26.902     | 30.321     | 35.679     |  33.0 | 22.44
Output  | 0.16259    | 0.16292    | 0.16301    |   0.0 |  0.12
Modify  | 1.7726     | 5.1669     | 7.1229     |  53.4 |  3.82
Other   |            | 3.505      |            |       |  2.59

Nlocal:    112.5 ave 131 max 93 min
Histogram: 3 4 8 0 2 8 11 6 5 1
Nghost:    6651.94 ave 6697 max 6592 min
Histogram: 3 0 3 6 5 9 5 7 5 5
Neighs:    81788.1 ave 95604 max 65799 min
Histogram: 2 4 6 3 3 9 8 4 5 4

Total # of neighbors = 3925830
Ave neighs/atom = 727.006
Ave special neighs/atom = 10.4444
Neighbor list builds = 3261
Dangerous builds = 0

write_data      restart.${NAME}.final.data
write_data      restart.octanol_293k.final.data
Ewald initialization ...
  using 12-bit tables for long-range coulomb (src/kspace.cpp:332)
  G vector (1/distance) = 0.142485
  estimated absolute RMS force accuracy = 0.0338118
  estimated relative force accuracy = 0.000101823
  KSpace vectors: actual max1d max3d = 128 4 364
                  kxmax kymax kzmax  = 4 4 4
Total wall time: 0:20:45
