
variable        infile index octanol.data   # The name of the (edited) data file

#>>>>>> Simulation settings <<<<<<<

units		 real		#angstroms = length -
atom_style	 full		#How the atoms are defined in the input data file
boundary        p p p           #periodic box in x, y and z
pair_style	 lj/cut/coul/long 14.0    #'lj/cut/coul/long 12.0' for your ethanol simulation
pair_modify     tail yes            #Tail corrections
pair_modify     mix arithmetic      #Lorentz-Berthelot pair interactions between dissimilar atom

# The settings below are additional settings you must add for your ethanol simulation as already detailed in your example NPT LAMMPS script in the tutorial
# For your ethanol homework, change/edit the pair_style line as advised above and uncomment the extra settings below and you should be good to go for this section.

special_bonds   lj/coul 0.0 0.0 0.5
kspace_style    ewald 0.0001
bond_style      harmonic
angle_style     harmonic
dihedral_style  opls


# >>> Using the variable command in LAMMPS to define inputs/settings for the simulation <<<<<<

variable   simulationTemp  index 283     #Simulation temperature
variable   simulationPress equal 0.987	#Simulation pressure

# Output files frequencies
variable        dumpfreq   index 1000          #Output frequency of dump information to dump
variable        thermofreq index 1000          #Output frequency of property information to log
variable        printfreq  index 1000          #Output frequency of information to be printed
variable        restartfreq index 1000000      #Output frequency of restart files


# Simulation run times (equilibration and production)
variable        NVT_equib  index 100000       # Equilibration run length (in timesteps)
variable        NVT_prod   index 30000       # Simulation run length  (in timesteps)


# Defining properties to output
# The first expression after the 'variable' command is a user defined name for the variable, it can be anything
# The expression after the 'equal' keyword are LAMMPS special/reserved terms for those property

variable    step        equal step
variable    density     equal density
variable    temp        equal temp
variable    press       equal press
variable    ke          equal ke
variable    pe          equal pe
variable    etotal      equal etotal
variable    enthalpy    equal enthalpy


# >>>>>>>>>>> Reading data, Neighbor list settings, energy minimization, assigning initial velocities & specifying thermodynamic property output style to log files <<<<<<<<<

read_data	${infile}
read_data	octanol.data
  orthogonal box = (0 0 0) to (40 40 40)
  3 by 4 by 4 MPI processor grid
  reading atoms ...
  5400 atoms
  scanning bonds ...
  1 = max bonds/atom
  scanning angles ...
  6 = max angles/atom
  scanning dihedrals ...
  10 = max dihedrals/atom
  reading bonds ...
  5200 bonds
  reading angles ...
  9800 angles
  reading dihedrals ...
  13200 dihedrals
  4 = max # of 1-2 neighbors
  6 = max # of 1-3 neighbors
  12 = max # of 1-4 neighbors
  16 = max # of special neighbors
  special bonds CPU = 0.0191504 secs
  read_data CPU = 0.0872098 secs
neighbor        1.0 bin
neigh_modify    delay 0 every 1 check yes page 1000000 one 20000
timestep        1.0

minimize        1e-4 1e-6 10000 100000        #Energy minimize before creating velocities
Ewald initialization ...
  using 12-bit tables for long-range coulomb (src/kspace.cpp:332)
  G vector (1/distance) = 0.140701
  estimated absolute RMS force accuracy = 0.0347754
  estimated relative force accuracy = 0.000104725
  KSpace vectors: actual max1d max3d = 128 4 364
                  kxmax kymax kzmax  = 4 4 4
Neighbor list info ...
  update every 1 steps, delay 0 steps, check yes
  max neighbors/atom: 20000, page size: 1000000
  master list distance cutoff = 15
  ghost atom cutoff = 15
  binsize = 7.5, bins = 6 6 6
  1 neighbor lists, perpetual/occasional/extra = 1 0 0
  (1) pair lj/cut/coul/long, perpetual
      attributes: half, newton on
      pair build: half/bin/newton
      stencil: half/bin/3d/newton
      bin: standard
Per MPI rank memory allocation (min/avg/max) = 23.62 | 23.67 | 23.84 Mbytes
Step Temp E_pair E_mol TotEng Press 
       0            0     3405.817    1701.0249    5106.8419    4097.4389 
     518            0   -2313.0078    889.32797   -1423.6798   -1232.5021 
Loop time of 6.25118 on 48 procs for 518 steps with 5400 atoms

60.2% CPU use with 48 MPI tasks x 1 OpenMP threads

Minimization stats:
  Stopping criterion = energy tolerance
  Energy initial, next-to-last, final = 
         5106.84193569     -1423.57203144     -1423.67981613
  Force two-norm initial, final = 3350.81 23.069
  Force max component initial, final = 845.808 2.76546
  Final line search alpha, max atom move = 0.0129189 0.0357266
  Iterations, force evaluations = 518 1030

MPI task timing breakdown:
Section |  min time  |  avg time  |  max time  |%varavg| %total
---------------------------------------------------------------
Pair    | 1.0713     | 2.4638     | 3.8686     |  44.4 | 39.41
Bond    | 0.055521   | 0.089285   | 0.1252     |   5.5 |  1.43
Kspace  | 0.47322    | 1.9016     | 3.3219     |  51.4 | 30.42
Neigh   | 0.1368     | 0.14175    | 0.14711    |   0.9 |  2.27
Comm    | 0.92707    | 1.0249     | 1.2183     |   5.9 | 16.39
Output  | 0          | 0          | 0          |   0.0 |  0.00
Modify  | 0          | 0          | 0          |   0.0 |  0.00
Other   |            | 0.6299     |            |       | 10.08

Nlocal:    112.5 ave 146 max 70 min
Histogram: 4 4 2 3 3 11 4 6 6 5
Nghost:    5652.17 ave 5831 max 5357 min
Histogram: 15 1 0 0 0 0 0 0 11 21
Neighs:    69014.7 ave 109982 max 28120 min
Histogram: 2 3 6 7 7 4 8 5 3 3

Total # of neighbors = 3312706
Ave neighs/atom = 613.464
Ave special neighs/atom = 10.4444
Neighbor list builds = 39
Dangerous builds = 0
#velocity	all create ${simulationTemp} 886874 mom yes rot yes dist gaussian

velocity        all create  ${simulationTemp} 317879265 units box
velocity        all create  283 317879265 units box
velocity        all zero linear units box

# The 'velocity' command line above assigns initial velocities to the atoms in our data file, see the LAMMPS 'velocity' command
# The number '886874' is the seed number which helps LAMMPS to consistently assign the same randomized velocities for the same simulation with the same seed number
# Changing that seed number for your simulation of a given system is one easy way to run an 'independent' simulation of the same system as taught in class
# You will need to do this for your homework

thermo_style    custom step vol temp press ke pe etotal enthalpy evdwl ecoul epair ebond eangle edihed eimp emol elong etail lx ly lz xy xz yz density
thermo          ${thermofreq}
thermo          1000

fix npt_density all npt temp ${simulationTemp} ${simulationTemp} 100 iso ${simulationPress} ${simulationPress} 1000
fix npt_density all npt temp 283 ${simulationTemp} 100 iso ${simulationPress} ${simulationPress} 1000
fix npt_density all npt temp 283 283 100 iso ${simulationPress} ${simulationPress} 1000
fix npt_density all npt temp 283 283 100 iso 0.987 ${simulationPress} 1000
fix npt_density all npt temp 283 283 100 iso 0.987 0.987 1000

run 50000
Ewald initialization ...
  using 12-bit tables for long-range coulomb (src/kspace.cpp:332)
  G vector (1/distance) = 0.140701
  estimated absolute RMS force accuracy = 0.0347754
  estimated relative force accuracy = 0.000104725
  KSpace vectors: actual max1d max3d = 128 4 364
                  kxmax kymax kzmax  = 4 4 4
Per MPI rank memory allocation (min/avg/max) = 22.49 | 22.55 | 22.87 Mbytes
Step Volume Temp Press KinEng PotEng TotEng Enthalpy E_vdwl E_coul E_pair E_bond E_angle E_dihed E_impro E_mol E_long E_tail Lx Ly Lz Xy Xz Yz Density 
     518        64000          283    2020.5194    4554.4303   -1423.6798    3130.7505    5016.6515   -2105.2356    4220.8927   -2313.0078    42.286151    240.31421     606.7276            0    889.32797   -4428.6649    -42.52282           40           40           40            0            0            0   0.67578079 
    1000    64278.498    208.58032   -1210.2715    3356.7652    2577.0184    5933.7836    4799.2316   -1725.9436    4306.3956   -1849.2661    1505.4226    2036.6074    884.25448            0    4426.2845    -4429.718   -42.338582    40.057937    40.057937    40.057937            0            0            0   0.67285284 
    2000    61620.152    293.60292    39.004918    4725.0673    3110.3569    7835.4242    7870.4766   -1591.9405    4269.8713   -1751.6172    1527.0248    2354.7869    980.16245            0    4861.9741   -4429.5481   -44.165104    39.497923    39.497923    39.497923            0            0            0   0.70188029 
    3000    59084.177    279.83076    76.011275    4503.4266      2977.08    7480.5066    7546.0042   -1654.2022    4212.2449   -1873.4648    1522.4628    2341.7034    986.37871            0    4850.5449   -4431.5075   -46.060732     38.94847     38.94847     38.94847            0            0            0   0.73200596 
    4000    58274.399    280.50889    -345.5243      4514.34      2876.23      7390.57    7096.9184   -1688.2947    4181.5025   -1939.7055    1487.8044     2334.352    993.77907            0    4815.9354   -4432.9133    -46.70079    38.769714    38.769714    38.769714            0            0            0   0.74217789 
    5000    56814.774     284.1948    375.39769    4573.6587    2828.6368    7402.2956    7713.3445   -1705.6538    4161.6164   -1976.5687    1521.6144    2299.8687     983.7224            0    4805.2055   -4432.5312   -47.900577    38.443279    38.443279    38.443279            0            0            0   0.76124514 
    6000    55207.202    282.82382    1073.6272    4551.5951    2732.5069    7284.1019    8148.5226    -1783.739    4183.6525   -2032.1364    1471.1409    2313.6867    979.81563            0    4764.6432   -4432.0498   -49.295388    38.077221    38.077221    38.077221            0            0            0   0.78341174 
    7000    56346.433    284.22985    97.562454    4574.2228     2743.823    7318.0458    7398.2182   -1757.4861    4142.3053   -2047.1071    1494.9366    2352.6841     943.3094            0    4790.9301   -4431.9262   -48.298717    38.337355    38.337355    38.337355            0            0            0   0.76757246 
    8000    55447.328    287.35969    334.68523    4624.5926    2643.0477    7267.6403     7538.281   -1793.4936    4129.5133   -2094.4348    1437.8176    2371.9008    927.76407            0    4737.4825   -4430.4545   -49.081905    38.132347    38.132347    38.132347            0            0            0   0.78001902 
    9000    56168.038    283.40019   -15.158959    4560.8708    2665.7638    7226.6346    7214.2171   -1760.5905    4088.8072   -2103.6885    1504.8025    2331.6481    933.00176            0    4769.4523   -4431.9051   -48.452119    38.296853    38.296853    38.296853            0            0            0   0.77001034 
   10000    54836.684    277.34584     166.8321    4463.4357    2515.8598    6979.2955    7112.7173   -1817.2612    4065.0301   -2183.5611     1469.575    2339.2209    890.62495            0    4699.4209     -4431.33   -49.628465    37.991846    37.991846    37.991846            0            0            0   0.78870506 
   11000    54551.055    281.95363    240.82776    4537.5907    2557.8653     7095.456    7287.0516   -1841.5358     4047.803   -2225.9231    1534.5627    2342.0117    907.21395            0    4783.7884   -4432.1902    -49.88832    37.925768    37.925768    37.925768            0            0            0   0.79283472 
   12000     54573.07    283.76482   -1172.6812    4566.7388    2495.1507    7061.8896    6128.5617   -1836.4975    4014.2255   -2251.9653    1522.9459    2331.4141    892.75601            0     4747.116   -4429.6933   -49.868194    37.930869    37.930869    37.930869            0            0            0   0.79251488 
   13000    54068.439    286.49253    311.72336    4610.6369    2511.4104    7122.0473    7367.8514   -1835.9358    4039.0763    -2229.712    1528.2703    2343.4607     869.3913            0    4741.1223   -4432.8525   -50.333623    37.813593    37.813593    37.813593            0            0            0   0.79991157 
   14000    53921.144    280.57024   -927.72733    4515.3272    2482.9158     6998.243    6268.6926   -1847.8001    4050.8461   -2227.2944    1513.9306    2312.5957    883.68385            0    4710.2102   -4430.3403   -50.471119    37.779224    37.779224    37.779224            0            0            0   0.80209668 
   15000     53928.67    282.71518   -577.35374    4549.8466     2460.602    7010.4486    6556.3631   -1879.9339    4008.5812   -2300.3905    1549.3605    2352.1003    859.53166            0    4760.9925   -4429.0378   -50.464075    37.780982    37.780982    37.780982            0            0            0   0.80198473 
   16000    53821.364     289.2799   -540.00128    4655.4953    2481.6142    7137.1094    6713.2465   -1874.3284    4017.4463   -2287.0513    1561.3321    2339.0533    868.28007            0    4768.6655   -4430.1693   -50.564688    37.755906    37.755906    37.755906            0            0            0   0.80358369 
   17000    53358.063    281.26193   -117.38132     4526.459    2423.9754    6950.4344    6859.0914   -1885.0649    4015.1204    -2302.189    1513.6525    2333.7346    878.77725            0    4726.1644   -4432.2445   -51.003734    37.647258    37.647258    37.647258            0            0            0    0.8105611 
   18000    53741.259    282.83071    1333.2066     4551.706    2410.4512    6962.1572    8007.0727   -1854.7555    4009.1435   -2277.7101     1498.428     2365.991    823.74244            0    4688.1614   -4432.0982   -50.640057    37.737166    37.737166    37.737166            0            0            0   0.80478148 
   19000    54316.133    285.62963    -407.1664      4596.75    2427.5194    7024.2694    6701.7345   -1851.3812    4012.4116   -2271.8116    1548.1821    2336.3679    814.78096            0     4699.331   -4432.8419   -50.104091    37.871248    37.871248    37.871248            0            0            0    0.7962638 
   20000    53496.741    286.62699   -135.50188    4612.8009    2364.8964    6977.6973    6871.9794   -1884.0826    4008.3422   -2308.6822    1526.8252    2308.3265    838.42679            0    4673.5785   -4432.9417   -50.871518    37.679845    37.679845    37.679845            0            0            0    0.8084599 
   21000    54163.953    278.65043   -1030.8733     4484.431    2424.0678    6908.4988    6094.1854   -1828.2279    3944.2216   -2314.9992    1546.8394    2342.5463    849.68136            0     4739.067   -4430.9929   -50.244864    37.835846    37.835846    37.835846            0            0            0   0.79850099 
   22000    53797.736     282.5792    299.52472    4547.6582    2355.0551    6902.7132    7137.7158   -1861.4049    3964.5076   -2329.3381    1526.5735    2323.6968    834.12292            0    4684.3932   -4432.4408   -50.586896     37.75038     37.75038     37.75038            0            0            0   0.80393663 
   23000    53207.293    282.63691    486.96294     4548.587    2274.4289    6823.0159    7200.8864    -1913.263    3962.8065    -2383.519    1564.6198    2269.5162    823.81194            0    4657.9479   -4433.0625    -51.14826    37.611766    37.611766    37.611766            0            0            0   0.81285793 
   24000    53839.841     282.1154    -1274.664    4540.1941    2374.0122    6914.2063    5913.3416   -1845.7044    3926.5822   -2350.0562     1567.445    2337.7394    818.88403            0    4724.0684   -4430.9339   -50.547335    37.760226    37.760226    37.760226            0            0            0   0.80330792 
   25000    53800.736    284.13547      1216.18    4572.7039    2319.2186    6891.9225    7846.1721   -1841.1331    3925.0103   -2347.0805    1525.0236    2312.6247    828.65077            0    4666.2991   -4430.9576   -50.584075    37.751082    37.751082    37.751082            0            0            0   0.80389179 
   26000     53454.01    281.21469    -1037.669    4525.6987    2353.8891    6879.5878    6070.6501   -1888.4818     3921.401   -2399.3716    1566.1701    2358.9171     828.1736            0    4753.2608   -4432.2909   -50.912185     37.66981     37.66981     37.66981            0            0            0   0.80910618 
   27000    54013.567    284.47394   -1011.7921     4578.151    2335.1243    6913.2753    6116.2538   -1862.4218    3925.8048   -2369.0804    1534.9741    2352.4737    816.75683            0    4704.2047   -4432.4634   -50.384757    37.800797    37.800797    37.800797            0            0            0    0.8007242 
   28000    53317.069    282.70964   -1490.3155    4549.7575    2242.4558    6792.2133    5633.3816   -1867.4615    3882.3182   -2418.2305    1570.4233    2287.5019    802.76103            0    4660.6863   -4433.0871    -51.04295    37.637614    37.637614    37.637614            0            0            0   0.81118432 
   29000    53087.118    287.74386    663.96014    4630.7752     2273.997    6904.7722    7418.8242   -1866.8032    3874.0468   -2426.0779    1542.1199     2339.937    818.01804            0    4700.0749   -4433.3215   -51.264046    37.583427    37.583427    37.583427            0            0            0   0.81469803 
   30000    53296.614    282.69185   -34.017297    4549.4711    2199.4995    6748.9706    6722.5298   -1826.8499    3808.0287   -2451.7523    1524.9359    2328.3951    797.92081            0    4651.2519   -4432.9312    -51.06254    37.632801    37.632801    37.632801            0            0            0   0.81149565 
   31000    53343.024    280.76033   -367.12468    4518.3865    2141.1776    6659.5641    6373.9582    -1896.728    3864.0583   -2466.3152    1552.6246    2267.1683    787.69987            0    4607.4928   -4433.6456   -51.018114    37.643721    37.643721    37.643721            0            0            0   0.81078963 
   32000    53458.186    282.16702   -414.78489    4541.0249    2238.8186    6779.8435    6456.4636   -1892.1762     3880.426   -2445.5737    1573.2838    2321.3546    789.75384            0    4684.3923   -4433.8234   -50.908208    37.670791    37.670791    37.670791            0            0            0   0.80904298 
   33000    53868.397    289.95429    75.793345    4666.3485    2255.7118    6922.0604    6981.6048   -1882.7753    3901.6124    -2415.718    1549.0849    2357.2386     765.1063            0    4671.4298   -4434.5552    -50.52054    37.766901    37.766901    37.766901            0            0            0   0.80288208 
   34000    53805.651    282.23078   -1048.5241    4542.0509    2189.8109    6731.8618    5909.0848   -1871.5732    3851.8115   -2452.9415     1521.297    2352.5258    768.92955            0    4642.7524   -4433.1798   -50.579454    37.752232    37.752232    37.752232            0            0            0   0.80381837 
   35000    52791.824    277.67451   -786.22905    4468.7252    2195.4708    6664.1959    6058.8667   -1876.8288    3831.3443    -2480.128    1529.1009    2335.6899    810.80798            0    4675.5988   -4434.6436   -51.550795    37.513613    37.513613    37.513613            0            0            0   0.81925509 
   36000    53424.857    285.50645    911.85145    4594.7677    2158.5779    6753.3456    7463.8117   -1878.1182    3879.7398    -2430.688    1531.6631    2311.2533     746.3495            0    4589.2659   -4432.3096   -50.939967    37.662961    37.662961    37.662961            0            0            0    0.8095477 
   37000    52906.026    286.89989    38.788846    4617.1928    2228.7271    6845.9199    6875.8486   -1878.2582    3848.3036   -2464.3649    1558.5156    2351.1621    783.41428            0     4693.092   -4434.4102   -51.439517    37.540644    37.540644    37.540644            0            0            0   0.81748665 
   38000    53118.743    287.55259    486.41563    4627.6969    2157.7069    6785.4038    7162.2215   -1918.6534     3866.995   -2484.9038     1535.391    2348.0257    759.19397            0    4642.6108   -4433.2454   -51.233525    37.590889    37.590889    37.590889            0            0            0   0.81421299 
   39000      52621.6    285.43198    20.738882    4593.5691    2098.2593    6691.8285    6707.7442   -1965.9999     3880.569   -2520.0944    1568.9983     2305.789    743.56641            0    4618.3537   -4434.6634   -51.717554    37.473249    37.473249    37.473249            0            0            0   0.82190527 
   40000     53091.15    286.66783   -755.92718    4613.4582    2226.1394    6839.5976    6254.2984   -1945.2569     3863.669   -2516.4423    1570.5108    2397.5121    774.55886            0    4742.5817   -4434.8544   -51.260153    37.584379    37.584379    37.584379            0            0            0   0.81463616 
   41000    53013.025    288.34461    901.46474    4640.4432    2156.1918    6796.6351    7493.5941   -1907.6763    3852.1422   -2489.9181    1544.3535    2338.6736    763.08281            0      4646.11   -4434.3841   -51.335694    37.565934    37.565934    37.565934            0            0            0   0.81583668 
   42000    52851.677     275.5136   -284.82763    4433.9487    2069.2227    6503.1714    6283.6299   -1915.8255    3844.1414   -2504.9416    1546.5014    2266.2892    761.37367            0    4574.1643   -4433.2575   -51.492414    37.527784    37.527784    37.527784            0            0            0    0.8183273 
   43000    53012.824    284.86237   -96.352928    4584.4022      2130.09    6714.4922    6639.9981   -1914.1698     3833.313    -2514.589    1567.1258    2341.5677    735.98544            0     4644.679   -4433.7322   -51.335889    37.565887    37.565887    37.565887            0            0            0   0.81583977 
   44000    52473.657    285.85538    879.15681    4600.3832     2053.342    6653.7252    7326.5215   -1957.3154    3854.2499   -2536.6925    1548.3238    2305.1556    736.55513            0    4590.0345   -4433.6269   -51.863366    37.438098    37.438098    37.438098            0            0            0   0.82422253 
   45000    52940.248    283.53811   -567.58928    4563.0904    2212.3369    6775.4273    6337.2034   -1930.8531      3828.45   -2535.3013    1648.7647     2352.739    746.13453            0    4747.6381   -4432.8982   -51.406266    37.548736    37.548736    37.548736            0            0            0   0.81695821 
   46000     52740.48    282.50895    184.73906    4546.5277    2102.7843     6649.312     6791.407   -1925.8021    3797.8175   -2560.3259    1583.7223    2357.5043    721.88364            0    4663.1102   -4432.3413   -51.600981    37.501447    37.501447    37.501447            0            0            0   0.82005266 
   47000        52619    282.32542    552.07045    4543.5741    2067.4202    6610.9944      7034.65   -1942.2004    3810.6849   -2564.6498    1523.9192    2328.2577    779.89316            0    4632.0701   -4433.1343    -51.72011    37.472632    37.472632    37.472632            0            0            0   0.82194588 
   48000    52394.634    284.17196   -1283.8305    4573.2911    2106.9905    6680.2817    5699.2785   -1943.3383     3813.134    -2561.737    1559.8044    2357.4588    751.46434            0    4668.7275   -4431.5326   -51.941588    37.419295    37.419295    37.419295            0            0            0   0.82546565 
   49000    52244.456    287.99551    1343.9808    4634.8251    1990.4537    6625.2788    7649.3005   -1917.1198    3763.2345    -2587.382    1476.4871    2340.5687    760.77983            0    4577.8357   -4433.4967   -52.090894     37.38351     37.38351     37.38351            0            0            0   0.82783846 
   50000    52731.781    280.65756   -921.11273    4516.7326    2119.0188    6635.7513    5927.3798   -1950.6265     3818.919   -2564.6475    1595.9965    2333.3958    754.27403            0    4683.6663     -4432.94   -51.609493    37.499385    37.499385    37.499385            0            0            0   0.82018793 
   50518    52588.301    277.84408    840.08496    4471.4541    2176.5281    6647.9822    7292.2824   -1950.8519    3810.6862   -2574.2397    1577.7768    2394.1519    778.83905            0    4750.7678    -4434.074   -51.750302    37.465343    37.465343    37.465343            0            0            0    0.8224257 
Loop time of 259.055 on 48 procs for 50000 steps with 5400 atoms

Performance: 16.676 ns/day, 1.439 hours/ns, 193.009 timesteps/s
65.2% CPU use with 48 MPI tasks x 1 OpenMP threads

MPI task timing breakdown:
Section |  min time  |  avg time  |  max time  |%varavg| %total
---------------------------------------------------------------
Pair    | 91.87      | 105.93     | 122.68     |  63.1 | 40.89
Bond    | 3.6722     | 4.6107     | 5.1628     |  12.5 |  1.78
Kspace  | 27.601     | 43.489     | 57.432     | 107.7 | 16.79
Neigh   | 17.983     | 18.921     | 19.791     |  14.7 |  7.30
Comm    | 47.958     | 54.632     | 64.882     |  52.8 | 21.09
Output  | 0.062453   | 0.063411   | 0.073793   |   0.6 |  0.02
Modify  | 19.185     | 24.524     | 28.397     |  46.5 |  9.47
Other   |            | 6.883      |            |       |  2.66

Nlocal:    112.5 ave 124 max 100 min
Histogram: 3 2 5 7 5 4 9 7 3 3
Nghost:    6636.21 ave 6683 max 6601 min
Histogram: 5 4 3 12 7 6 5 2 1 3
Neighs:    81622.4 ave 89217 max 72383 min
Histogram: 4 3 3 5 6 7 3 4 7 6

Total # of neighbors = 3917876
Ave neighs/atom = 725.533
Ave special neighs/atom = 10.4444
Neighbor list builds = 5348
Dangerous builds = 0

unfix npt_density

fix reshape_box all deform 1 x final 0.0 37.4456 y final 0.0 37.4456 z final 0.0 37.4456 units box

run 100000
Ewald initialization ...
  using 12-bit tables for long-range coulomb (src/kspace.cpp:332)
  G vector (1/distance) = 0.142471
  estimated absolute RMS force accuracy = 0.0338167
  estimated relative force accuracy = 0.000101838
  KSpace vectors: actual max1d max3d = 128 4 364
                  kxmax kymax kzmax  = 4 4 4
Per MPI rank memory allocation (min/avg/max) = 22.52 | 22.56 | 22.89 Mbytes
Step Volume Temp Press KinEng PotEng TotEng Enthalpy E_vdwl E_coul E_pair E_bond E_angle E_dihed E_impro E_mol E_long E_tail Lx Ly Lz Xy Xz Yz Density 
   50518    52588.301    277.84408    840.16139    4471.4541    2176.5154    6647.9695    7292.3283   -1950.8519    3866.2269   -2574.2524    1577.7768    2394.1519    778.83905            0    4750.7678   -4489.6274   -51.750302    37.465343    37.465343    37.465343            0            0            0    0.8224257 
   51000      52587.9    277.84408    846.09916    4471.4541    2176.5003    6647.9545    7296.8622   -1950.8201    3866.2282   -2574.2194    1577.7287    2394.1519    778.83905            0    4750.7197   -4489.6275   -51.750696    37.465248    37.465248    37.465248            0            0            0   0.82243196 
   52000    52587.069    277.84408    858.33363    4471.4541    2176.4433    6647.8974    7306.1779   -1950.7539    3866.2049   -2574.1765    1577.6289    2394.1519    778.83905            0    4750.6198   -4489.6276   -51.751514     37.46505     37.46505     37.46505            0            0            0   0.82244497 
   53000    52586.238    277.84408      870.626    4471.4541       2176.4    6647.8542    7315.5515   -1950.6874     3866.195   -2574.1201    1577.5292    2394.1519    778.83905            0    4750.5201   -4489.6276   -51.752333    37.464853    37.464853    37.464853            0            0            0   0.82245797 
   54000    52585.406    277.84408    882.87085    4471.4541    2176.3456    6647.7997    7324.8771    -1950.621    3866.1738    -2574.075    1577.4296    2394.1519    778.83905            0    4750.4206   -4489.6277   -51.753151    37.464656    37.464656    37.464656            0            0            0   0.82247097 
   55000    52584.575    277.84408    895.07522    4471.4541    2176.2818    6647.7359     7334.162   -1950.5546     3866.143   -2574.0393    1577.3302    2394.1519    778.83905            0    4750.3211   -4489.6278   -51.753969    37.464458    37.464458    37.464458            0            0            0   0.82248397 
   56000    52583.744    277.84408    907.40783    4471.4541    2176.2482    6647.7023    7343.5752   -1950.4881    3866.1424   -2573.9736    1577.2309    2394.1519    778.83905            0    4750.2218   -4489.6279   -51.754787    37.464261    37.464261    37.464261            0            0            0   0.82249698 
   57000    52582.912    277.84408     919.7215    4471.4541    2176.2101    6647.6643    7352.9691   -1950.4217    3866.1372   -2573.9125    1577.1317    2394.1519    778.83905            0    4750.1227    -4489.628   -51.755605    37.464063    37.464063    37.464063            0            0            0   0.82250998 
   58000    52582.081    277.84408    932.04713    4471.4541     2176.175    6647.6291    7362.3748   -1950.3553    3866.1347   -2573.8486    1577.0327    2394.1519    778.83905            0    4750.0236   -4489.6281   -51.756424    37.463866    37.463866    37.463866            0            0            0   0.82252298 
   59000     52581.25    277.84408    944.34786    4471.4541    2176.1341    6647.5882    7371.7554   -1950.2887    3866.1263   -2573.7906    1576.9338    2394.1519    778.83905            0    4749.9248   -4489.6282   -51.757242    37.463668    37.463668    37.463668            0            0            0   0.82253599 
   60000    52580.419    277.84408    956.75367    4471.4541    2176.1179     6647.572    7381.2408   -1950.2226    3866.1426   -2573.7082    1576.8351    2394.1519    778.83905            0     4749.826   -4489.6282    -51.75806    37.463471    37.463471    37.463471            0            0            0   0.82254899 
   61000    52579.587    277.84408    969.20511    4471.4541    2176.1124    6647.5665    7390.7717   -1950.1563    3866.1696    -2573.615    1576.7364    2394.1519    778.83905            0    4749.7274   -4489.6283   -51.758878    37.463274    37.463274    37.463274            0            0            0     0.822562 
   62000    52578.756    277.84408    981.44461    4471.4541    2176.0572    6647.5114    7400.0902   -1950.0899    3866.1466   -2573.5717     1576.638    2394.1519    778.83905            0     4749.629   -4489.6284   -51.759697    37.463076    37.463076    37.463076            0            0            0     0.822575 
   63000    52577.925    277.84408     993.5167    4471.4541    2175.9628    6647.4169    7409.2407   -1950.0236    3866.0842   -2573.5678    1576.5397    2394.1519    778.83905            0    4749.5306   -4489.6285   -51.760515    37.462879    37.462879    37.462879            0            0            0   0.82258801 
   64000    52577.093    277.84408    1005.9252    4471.4541    2175.9476    6647.4017    7418.7281    -1949.957    3866.1008   -2573.4848    1576.4415    2394.1519    778.83905            0    4749.4324   -4489.6286   -51.761333    37.462681    37.462681    37.462681            0            0            0   0.82260101 
   65000    52576.262    277.84408    1018.2229    4471.4541    2175.9063    6647.3604    7428.1041   -1949.8906    3866.0912   -2573.4281    1576.3434    2394.1519    778.83905            0    4749.3344   -4489.6287   -51.762152    37.462484    37.462484    37.462484            0            0            0   0.82261402 
   66000    52575.431    277.84408     1030.503    4471.4541     2175.861    6647.3151    7437.4623   -1949.8242    3866.0775   -2573.3755    1576.2455    2394.1519    778.83905            0    4749.2365   -4489.6288    -51.76297    37.462286    37.462286    37.462286            0            0            0   0.82262702 
   67000      52574.6    277.84408     1042.883    4471.4541    2175.8392    6647.2933    7446.9202   -1949.7578    3866.0871   -2573.2996    1576.1477    2394.1519    778.83905            0    4749.1387   -4489.6289   -51.763789    37.462089    37.462089    37.462089            0            0            0   0.82264003 
   68000    52573.768    277.84408    1055.4706    4471.4541    2175.8663    6647.3204    7456.5861   -1949.6913    3866.1454   -2573.1748    1576.0501    2394.1519    778.83905            0    4749.0411   -4489.6289   -51.764607    37.461892    37.461892    37.461892            0            0            0   0.82265304 
   69000    52572.937    277.84408    1067.4905    4471.4541    2175.7599    6647.2141    7465.6829   -1949.6251    3866.0705   -2573.1836    1575.9526    2394.1519    778.83905            0    4748.9436    -4489.629   -51.765425    37.461694    37.461694    37.461694            0            0            0   0.82266604 
   70000    52572.106    277.84408    1079.8115    4471.4541    2175.7246    6647.1787    7475.0812   -1949.5584    3866.0659   -2573.1217    1575.8552    2394.1519    778.83905            0    4748.8462   -4489.6291   -51.766244    37.461497    37.461497    37.461497            0            0            0   0.82267905 
   71000    52571.275    277.84408    1092.0251    4471.4541     2175.664    6647.1181    7484.3717    -1949.492    3866.0362    -2573.085     1575.758    2394.1519    778.83905            0     4748.749   -4489.6292   -51.767062    37.461299    37.461299    37.461299            0            0            0   0.82269206 
   72000    52570.444    277.84408    1104.2211    4471.4541    2175.5994    6647.0535    7493.6444   -1949.4252     3866.002   -2573.0525    1575.6609    2394.1519    778.83905            0    4748.6519   -4489.6293   -51.767881    37.461102    37.461102    37.461102            0            0            0   0.82270507 
   73000    52569.612    277.84408    1116.4562    4471.4541    2175.5441    6646.9982     7502.956   -1949.3586    3865.9771   -2573.0109     1575.564    2394.1519    778.83905            0     4748.555   -4489.6294   -51.768699    37.460904    37.460904    37.460904            0            0            0   0.82271807 
   74000    52568.781    277.84408    1128.9786    4471.4541    2175.5563    6647.0104    7512.5551   -1949.2919    3866.0194   -2572.9019    1575.4672    2394.1519    778.83905            0    4748.4582   -4489.6295   -51.769518    37.460707    37.460707    37.460707            0            0            0   0.82273108 
   75000     52567.95    277.84408    1141.2903    4471.4541     2175.519    6646.9731    7521.9429   -1949.2254    3866.0124   -2572.8425    1575.3705    2394.1519    778.83905            0    4748.3615   -4489.6295   -51.770336     37.46051     37.46051     37.46051            0            0            0   0.82274409 
   76000    52567.119    277.84408    1153.6519    4471.4541    2175.4935    6646.9477    7531.3805   -1949.1588     3866.017   -2572.7714     1575.274    2394.1519    778.83905            0     4748.265   -4489.6296   -51.771155    37.460312    37.460312    37.460312            0            0            0    0.8227571 
   77000    52566.288    277.84408    1165.9769    4471.4541    2175.4596    6646.9138    7540.7813   -1949.0919    3866.0126    -2572.709    1575.1776    2394.1519    778.83905            0    4748.1686   -4489.6297   -51.771974    37.460115    37.460115    37.460115            0            0            0   0.82277011 
   78000    52565.457    277.84408    1178.4567    4471.4541    2175.4621    6646.9162    7550.3367   -1949.0252    3866.0448   -2572.6103    1575.0814    2394.1519    778.83905            0    4748.0723   -4489.6298   -51.772792    37.459917    37.459917    37.459917            0            0            0   0.82278312 
   79000    52564.626    277.84408    1190.8342    4471.4541    2175.4405    6646.8947    7559.7895   -1948.9586    3866.0528   -2572.5357    1574.9853    2394.1519    778.83905            0    4747.9762   -4489.6299   -51.773611     37.45972     37.45972     37.45972            0            0            0   0.82279613 
   80000    52563.794    277.84408     1203.298    4471.4541    2175.4394    6646.8935    7569.3285    -1948.892    3866.0811   -2572.4409    1574.8893    2394.1519    778.83905            0    4747.8803     -4489.63   -51.774429    37.459522    37.459522    37.459522            0            0            0   0.82280914 
   81000    52562.963    277.84408    1215.6522    4471.4541    2175.4125    6646.8666    7578.7575   -1948.8255    3866.0836   -2572.3719    1574.7935    2394.1519    778.83905            0    4747.7844   -4489.6301   -51.775248    37.459325    37.459325    37.459325            0            0            0   0.82282215 
   82000    52562.132    277.84408    1228.0583    4471.4541    2175.3979     6646.852    7588.2383   -1948.7588    3866.0981   -2572.2909    1574.6978    2394.1519    778.83905            0    4747.6887   -4489.6301   -51.776067    37.459128    37.459128    37.459128            0            0            0   0.82283516 
   83000    52561.301    277.84408    1240.5015    4471.4541     2175.392    6646.8461    7597.7559   -1948.6922    3866.1213   -2572.2012    1574.6022    2394.1519    778.83905            0    4747.5932   -4489.6302   -51.776885     37.45893     37.45893     37.45893            0            0            0   0.82284817 
   84000     52560.47    277.84408     1252.789    4471.4541    2175.3496    6646.8037    7607.1173   -1948.6259     3866.108   -2572.1482    1574.5068    2394.1519    778.83905            0    4747.4978   -4489.6303   -51.777704    37.458733    37.458733    37.458733            0            0            0   0.82286118 
   85000    52559.639    277.84408    1265.0352    4471.4541    2175.2977    6646.7518    7616.4373   -1948.5589    3866.0846   -2572.1048    1574.4115    2394.1519    778.83905            0    4747.4025   -4489.6304   -51.778523    37.458535    37.458535    37.458535            0            0            0   0.82287419 
   86000    52558.808    277.84408    1277.3906    4471.4541    2175.2715    6646.7256    7625.8663   -1948.4923    3866.0869   -2572.0359    1574.3164    2394.1519    778.83905            0    4747.3073   -4489.6305   -51.779341    37.458338    37.458338    37.458338            0            0            0    0.8228872 
   87000    52557.977    277.84408     1289.736    4471.4541    2175.2429    6646.6971    7635.2851   -1948.4256    3866.0868   -2571.9694    1574.2214    2394.1519    778.83905            0    4747.2123   -4489.6306    -51.78016     37.45814     37.45814     37.45814            0            0            0   0.82290021 
   88000    52557.146    277.84408    1301.8703    4471.4541    2175.1649     6646.619    7644.4923    -1948.359     3866.037   -2571.9526    1574.1265    2394.1519    778.83905            0    4747.1175   -4489.6307   -51.780979    37.457943    37.457943    37.457943            0            0            0   0.82291322 
   89000    52556.315    277.84408    1314.2135    4471.4541    2175.1359      6646.59    7653.9083   -1948.2923    3866.0362   -2571.8868    1574.0318    2394.1519    778.83905            0    4747.0227   -4489.6307   -51.781798    37.457746    37.457746    37.457746            0            0            0   0.82292624 
   90000    52555.484    277.84408     1326.462    4471.4541    2175.0848    6646.5389    7663.2294   -1948.2257    3866.0132   -2571.8433    1573.9372    2394.1519    778.83905            0    4746.9282   -4489.6308   -51.782617    37.457548    37.457548    37.457548            0            0            0   0.82293925 
   91000    52554.653    277.84408    1338.9428    4471.4541    2175.0883    6646.5425    7672.7828   -1948.1591    3866.0446   -2571.7454    1573.8427    2394.1519    778.83905            0    4746.8337   -4489.6309   -51.783435    37.457351    37.457351    37.457351            0            0            0   0.82295226 
   92000    52553.822    277.84408     1351.235    4471.4541    2175.0476    6646.5017    7682.1471   -1948.0924    3866.0316   -2571.6918    1573.7484    2394.1519    778.83905            0    4746.7394    -4489.631   -51.784254    37.457153    37.457153    37.457153            0            0            0   0.82296527 
   93000    52552.991    277.84408    1363.4378    4471.4541    2174.9862    6646.4403     7691.422   -1948.0253    3865.9974    -2571.659    1573.6543    2394.1519    778.83905            0    4746.6452   -4489.6311   -51.785073    37.456956    37.456956    37.456956            0            0            0   0.82297829 
   94000     52552.16    277.84408    1375.8175    4471.4541    2174.9661    6646.4202    7700.8733   -1947.9589    3866.0049   -2571.5851    1573.5602    2394.1519    778.83905            0    4746.5512   -4489.6312   -51.785892    37.456758    37.456758    37.456758            0            0            0    0.8229913 
   95000    52551.329    277.84408    1388.2743    4471.4541    2174.9642    6646.4184    7710.4019   -1947.8921    3866.0303   -2571.4931    1573.4663    2394.1519    778.83905            0    4746.4573   -4489.6313   -51.786711    37.456561    37.456561    37.456561            0            0            0   0.82300431 
   96000    52550.498    277.84408    1400.5976    4471.4541    2174.9313    6646.3854    7719.7965   -1947.8249     3866.024   -2571.4323    1573.3726    2394.1519    778.83905            0    4746.3635   -4489.6314    -51.78753    37.456364    37.456364    37.456364            0            0            0   0.82301733 
   97000    52549.667    277.84408    1412.9608    4471.4541    2174.9077    6646.3618     7729.231   -1947.7579    3866.0272   -2571.3622     1573.279    2394.1519    778.83905            0    4746.2699   -4489.6314   -51.788349    37.456166    37.456166    37.456166            0            0            0   0.82303034 
   98000    52548.836    277.84408    1425.2993    4471.4541    2174.8783    6646.3324    7738.6402    -1947.691    3866.0244   -2571.2982    1573.1855    2394.1519    778.83905            0    4746.1764   -4489.6315   -51.789168    37.455969    37.455969    37.455969            0            0            0   0.82304336 
   99000    52548.005    277.84408    1437.7235    4471.4541    2174.8691    6646.3232    7748.1352   -1947.6242    3866.0418    -2571.214    1573.0921    2394.1519    778.83905            0    4746.0831   -4489.6316   -51.789986    37.455771    37.455771    37.455771            0            0            0   0.82305637 
  100000    52547.174    277.84408    1450.1593    4471.4541    2174.8627    6646.3168    7757.6415   -1947.5573    3866.0618   -2571.1272    1572.9989    2394.1519    778.83905            0    4745.9899   -4489.6317   -51.790805    37.455574    37.455574    37.455574            0            0            0   0.82306939 
  101000    52546.343    277.84408    1462.4551    4471.4541    2174.8235    6646.2776    7767.0074   -1947.4906     3866.049   -2571.0734    1572.9059    2394.1519    778.83905            0    4745.8968   -4489.6318   -51.791624    37.455376    37.455376    37.455376            0            0            0    0.8230824 
  102000    52545.512    277.84408    1474.8176    4471.4541    2174.8001    6646.2542    7776.4399   -1947.4235    3866.0515   -2571.0038    1572.8129    2394.1519    778.83905            0    4745.8039   -4489.6319   -51.792443    37.455179    37.455179    37.455179            0            0            0   0.82309542 
  103000    52544.681    277.84408    1487.3665    4471.4541    2174.8203    6646.2745    7786.0587   -1947.3568     3866.098   -2570.8908    1572.7202    2394.1519    778.83905            0    4745.7111    -4489.632   -51.793262    37.454982    37.454982    37.454982            0            0            0   0.82310844 
  104000     52543.85    277.84408    1499.5986    4471.4541    2174.7664    6646.2205    7795.3601     -1947.29    3866.0699   -2570.8521    1572.6275    2394.1519    778.83905            0    4745.6185    -4489.632   -51.794082    37.454784    37.454784    37.454784            0            0            0   0.82312145 
  105000    52543.019    277.84408    1511.9135    4471.4541    2174.7319     6646.186    7804.7442   -1947.2232    3866.0612   -2570.7941     1572.535    2394.1519    778.83905            0     4745.526   -4489.6321   -51.794901    37.454587    37.454587    37.454587            0            0            0   0.82313447 
  106000    52542.188    277.84408    1524.1916    4471.4541    2174.6889    6646.1431    7814.0914   -1947.1561    3866.0436   -2570.7447    1572.4426    2394.1519    778.83905            0    4745.4336   -4489.6322    -51.79572    37.454389    37.454389    37.454389            0            0            0   0.82314749 
  107000    52541.358    277.84408    1536.5306    4471.4541    2174.6604    6646.1145    7823.4993   -1947.0889    3866.0402    -2570.681    1572.3504    2394.1519    778.83905            0    4745.3414   -4489.6323   -51.796539    37.454192    37.454192    37.454192            0            0            0    0.8231605 
  108000    52540.527    277.84408    1548.9039    4471.4541    2174.6398    6646.0939     7832.941   -1947.0219    3866.0449   -2570.6095    1572.2583    2394.1519    778.83905            0    4745.2493   -4489.6324   -51.797358    37.453994    37.453994    37.453994            0            0            0   0.82317352 
  109000    52539.696    277.84408    1561.2804    4471.4541    2174.6202    6646.0743     7842.386   -1946.9548    3866.0502   -2570.5371    1572.1663    2394.1519    778.83905            0    4745.1573   -4489.6325   -51.798177    37.453797    37.453797    37.453797            0            0            0   0.82318654 
  110000    52538.865    277.84408    1573.5417    4471.4541    2174.5736    6646.0277    7851.7154   -1946.8878    3866.0284   -2570.4919    1572.0745    2394.1519    778.83905            0    4745.0655   -4489.6326   -51.798996      37.4536      37.4536      37.4536            0            0            0   0.82319956 
  111000    52538.034    277.84408      1585.93    4471.4541    2174.5568    6646.0109    7861.1717   -1946.8208    3866.0364    -2570.417    1571.9828    2394.1519    778.83905            0    4744.9738   -4489.6326   -51.799815    37.453402    37.453402    37.453402            0            0            0   0.82321257 
  112000    52537.203    277.84408    1598.4866    4471.4541    2174.5795    6646.0337    7870.7961   -1946.7539    3866.0839   -2570.3027    1571.8913    2394.1519    778.83905            0    4744.8823   -4489.6327   -51.800634    37.453205    37.453205    37.453205            0            0            0   0.82322559 
  113000    52536.372    277.84408    1610.8523    4471.4541    2174.5575    6646.0117    7880.2291    -1946.687    3866.0864   -2570.2333    1571.7999    2394.1519    778.83905            0    4744.7909   -4489.6328   -51.801454    37.453007    37.453007    37.453007            0            0            0   0.82323861 
  114000    52535.542    277.84408    1623.2152    4471.4541     2174.535    6645.9891    7889.6593   -1946.6198    3866.0881   -2570.1646    1571.7086    2394.1519    778.83905            0    4744.6996   -4489.6329   -51.802273     37.45281     37.45281     37.45281            0            0            0   0.82325163 
  115000    52534.711    277.84408    1635.3698    4471.4541    2174.4636    6645.9177    7898.8805    -1946.553    3866.0411   -2570.1449    1571.6175    2394.1519    778.83905            0    4744.6085    -4489.633   -51.803092    37.452612    37.452612    37.452612            0            0            0   0.82326465 
  116000     52533.88    277.84408    1647.6941    4471.4541    2174.4321    6645.8862    7908.2716   -1946.4859    3866.0336   -2570.0854    1571.5265    2394.1519    778.83905            0    4744.5175   -4489.6331   -51.803911    37.452415    37.452415    37.452415            0            0            0   0.82327767 
  117000    52533.049    277.84408    1660.1638    4471.4541    2174.4347    6645.8888    7917.8078   -1946.4191    3866.0603   -2569.9919    1571.4357    2394.1519    778.83905            0    4744.4267   -4489.6332   -51.804731    37.452217    37.452217    37.452217            0            0            0   0.82329069 
  118000    52532.218    277.84408    1672.4128    4471.4541    2174.3856    6645.8398    7927.1229   -1946.3523    3866.0352   -2569.9503     1571.345    2394.1519    778.83905            0     4744.336   -4489.6333    -51.80555     37.45202     37.45202     37.45202            0            0            0   0.82330371 
  119000    52531.388    277.84408    1685.0161    4471.4541    2174.4198    6645.8739    7936.7924   -1946.2855    3866.0932   -2569.8256    1571.2544    2394.1519    778.83905            0    4744.2454   -4489.6333   -51.806369    37.451823    37.451823    37.451823            0            0            0   0.82331673 
  120000    52530.557    277.84408    1697.2929    4471.4541    2174.3774    6645.8316    7946.1349   -1946.2183    3866.0742   -2569.7775     1571.164    2394.1519    778.83905            0    4744.1549   -4489.6334   -51.807188    37.451625    37.451625    37.451625            0            0            0   0.82332975 
  121000    52529.726    277.84408    1709.5543    4471.4541    2174.3315    6645.7856    7955.4618   -1946.1513    3866.0516   -2569.7332    1571.0737    2394.1519    778.83905            0    4744.0647   -4489.6335   -51.808008    37.451428    37.451428    37.451428            0            0            0   0.82334277 
  122000    52528.895    277.84408    1721.8801    4471.4541    2174.3008    6645.7549    7964.8529   -1946.0842    3866.0441   -2569.6737    1570.9835    2394.1519    778.83905            0    4743.9745   -4489.6336   -51.808827     37.45123     37.45123     37.45123            0            0            0   0.82335579 
  123000    52528.065    277.84408     1734.243    4471.4541     2174.279    6645.7331    7974.2811   -1946.0167    3866.0448   -2569.6055    1570.8935    2394.1519    778.83905            0    4743.8845   -4489.6337   -51.809647    37.451033    37.451033    37.451033            0            0            0   0.82336881 
  124000    52527.234    277.84408    1746.6553    4471.4541    2174.2687    6645.7229    7983.7583   -1945.9494    3866.0573   -2569.5259    1570.8036    2394.1519    778.83905            0    4743.7946   -4489.6338   -51.810466    37.450835    37.450835    37.450835            0            0            0   0.82338184 
  125000    52526.403    277.84408     1758.938    4471.4541     2174.228    6645.6821    7993.1055   -1945.8826    3866.0396   -2569.4769    1570.7139    2394.1519    778.83905            0    4743.7049   -4489.6339   -51.811285    37.450638    37.450638    37.450638            0            0            0   0.82339486 
  126000    52525.573    277.84408    1771.2861    4471.4541    2174.2027    6645.6569     8002.518   -1945.8156     3866.037   -2569.4125    1570.6243    2394.1519    778.83905            0    4743.6153   -4489.6339   -51.812105    37.450441    37.450441    37.450441            0            0            0   0.82340788 
  127000    52524.742    277.84408    1783.6485    4471.4541     2174.181    6645.6351    8011.9447   -1945.7483    3866.0375   -2569.3448    1570.5348    2394.1519    778.83905            0    4743.5258    -4489.634   -51.812924    37.450243    37.450243    37.450243            0            0            0    0.8234209 
  128000    52523.911    277.84408    1796.0272    4471.4541    2174.1632    6645.6173    8021.3874    -1945.681    3866.0418   -2569.2733    1570.4455    2394.1519    778.83905            0    4743.4365   -4489.6341   -51.813744    37.450046    37.450046    37.450046            0            0            0   0.82343393 
  129000     52523.08    277.84408    1808.5015    4471.4541    2174.1678    6645.6219    8030.9254   -1945.6138    3866.0685   -2569.1795    1570.3563    2394.1519    778.83905            0    4743.3473   -4489.6342   -51.814563    37.449848    37.449848    37.449848            0            0            0   0.82344695 
  130000     52522.25    277.84408    1820.9153    4471.4541    2174.1583    6645.6124    8040.4029   -1945.5466    3866.0809      -2569.1    1570.2673    2394.1519    778.83905            0    4743.2582   -4489.6343   -51.815383    37.449651    37.449651    37.449651            0            0            0   0.82345997 
  131000    52521.419    277.84408    1833.2079    4471.4541    2174.1205    6645.5746    8049.7588   -1945.4792    3866.0647   -2569.0489    1570.1784    2394.1519    778.83905            0    4743.1693   -4489.6344   -51.816202    37.449453    37.449453    37.449453            0            0            0     0.823473 
  132000    52520.588    277.84408    1845.5221    4471.4541    2174.0877    6645.5418    8059.1359    -1945.412    3866.0536   -2568.9929    1570.0896    2394.1519    778.83905            0    4743.0806   -4489.6345   -51.817022    37.449256    37.449256    37.449256            0            0            0   0.82348602 
  133000    52519.758    277.84408    1857.8485    4471.4541    2174.0578    6645.5119     8068.525    -1945.345    3866.0454   -2568.9341     1570.001    2394.1519    778.83905            0    4742.9919   -4489.6345   -51.817841    37.449059    37.449059    37.449059            0            0            0   0.82349904 
  134000    52518.927    277.84408    1870.4571    4471.4541    2174.0942    6645.5483    8078.1963    -1945.278    3866.1034   -2568.8093    1569.9125    2394.1519    778.83905            0    4742.9034   -4489.6346   -51.818661    37.448861    37.448861    37.448861            0            0            0   0.82351207 
  135000    52518.096    277.84408    1882.9945    4471.4541    2174.1138    6645.5679     8087.796   -1945.2113    3866.1447   -2568.7013    1569.8241    2394.1519    778.83905            0    4742.8151   -4489.6347    -51.81948    37.448664    37.448664    37.448664            0            0            0   0.82352509 
  136000    52517.266    277.84408    1895.3459    4471.4541    2174.0901    6645.5442    8097.2095   -1945.1438    3866.1418   -2568.6368    1569.7359    2394.1519    778.83905            0    4742.7269   -4489.6348     -51.8203    37.448466    37.448466    37.448466            0            0            0   0.82353812 
  137000    52516.435    277.84408     1907.578    4471.4541    2174.0385    6645.4926    8106.5035   -1945.0765     3866.111   -2568.6003    1569.6478    2394.1519    778.83905            0    4742.6388   -4489.6349   -51.821119    37.448269    37.448269    37.448269            0            0            0   0.82355114 
  138000    52515.605    277.84408    1919.8868    4471.4541    2174.0049     6645.459    8115.8738   -1945.0091    3866.0981    -2568.546    1569.5599    2394.1519    778.83905            0    4742.5509    -4489.635   -51.821939    37.448071    37.448071    37.448071            0            0            0   0.82356417 
  139000    52514.774    277.84408    1932.2885    4471.4541    2173.9933    6645.4474    8125.3372   -1944.9416    3866.1069   -2568.4698    1569.4721    2394.1519    778.83905            0    4742.4631   -4489.6351   -51.822759    37.447874    37.447874    37.447874            0            0            0    0.8235772 
  140000    52513.943    277.84408    1944.7021    4471.4541    2173.9843    6645.4384    8134.8118   -1944.8744    3866.1185   -2568.3911    1569.3844    2394.1519    778.83905            0    4742.3754   -4489.6351   -51.823578    37.447677    37.447677    37.447677            0            0            0   0.82359022 
  141000    52513.113    277.84408     1957.126    4471.4541    2173.9779     6645.432    8144.2968   -1944.8071    3866.1324     -2568.31    1569.2969    2394.1519    778.83905            0    4742.2879   -4489.6352   -51.824398    37.447479    37.447479    37.447479            0            0            0   0.82360325 
  142000    52512.282    277.84408    1969.4911    4471.4541    2173.9577    6645.4118    8153.7225     -1944.74    3866.1325   -2568.2428    1569.2095    2394.1519    778.83905            0    4742.2005   -4489.6353   -51.825218    37.447282    37.447282    37.447282            0            0            0   0.82361628 
  143000    52511.452    277.84408    1981.7307    4471.4541    2173.9082    6645.3623    8163.0225   -1944.6727    3866.1031   -2568.2051    1569.1223    2394.1519    778.83905            0    4742.1132   -4489.6354   -51.826037    37.447084    37.447084    37.447084            0            0            0    0.8236293 
  144000    52510.621    277.84408    1994.1167    4471.4541    2173.8932    6645.3473    8172.4689   -1944.6051    3866.1076   -2568.1329    1569.0352    2394.1519    778.83905            0    4742.0261   -4489.6355   -51.826857    37.446887    37.446887    37.446887            0            0            0   0.82364233 
  145000    52509.791    277.84408    2006.4166    4471.4541     2173.858    6645.3121    8181.8288   -1944.5378    3866.0922   -2568.0812    1568.9482    2394.1519    778.83905            0    4741.9392   -4489.6356   -51.827677    37.446689    37.446689    37.446689            0            0            0   0.82365536 
  146000     52508.96    277.84408    2018.8267    4471.4541    2173.8486    6645.3027    8191.2986   -1944.4707    3866.1026   -2568.0037    1568.8614    2394.1519    778.83905            0    4741.8523   -4489.6357   -51.828497    37.446492    37.446492    37.446492            0            0            0   0.82366838 
  147000     52508.13    277.84408    2031.1388    4471.4541    2173.8164    6645.2705    8200.6703   -1944.4031    3866.0896   -2567.9492    1568.7747    2394.1519    778.83905            0    4741.7657   -4489.6358   -51.829317    37.446295    37.446295    37.446295            0            0            0   0.82368141 
  148000    52507.299    277.84408    2043.3904    4471.4541    2173.7702    6645.2243    8209.9814   -1944.3355    3866.0625   -2567.9089    1568.6881    2394.1519    778.83905            0    4741.6791   -4489.6358   -51.830136    37.446097    37.446097    37.446097            0            0            0   0.82369444 
  149000    52506.468    277.84408    2055.7117    4471.4541    2173.7403    6645.1945    8219.3618   -1944.2679    3866.0514   -2567.8524    1568.6017    2394.1519    778.83905            0    4741.5927   -4489.6359   -51.830956      37.4459      37.4459      37.4459            0            0            0   0.82370747 
  150000    52505.638    277.84408    2068.0387    4471.4541    2173.7118    6645.1659    8228.7477   -1944.2005    3866.0419   -2567.7946    1568.5154    2394.1519    778.83905            0    4741.5064    -4489.636   -51.831776    37.445702    37.445702    37.445702            0            0            0    0.8237205 
  150518    52505.208    277.84408    2074.4327    4471.4541     2173.699    6645.1532     8233.618   -1944.1656     3866.039   -2567.7627    1568.4708    2394.1519    778.83905            0    4741.4618   -4489.6361   -51.832201      37.4456      37.4456      37.4456            0            0            0   0.82372725 
Loop time of 389.312 on 48 procs for 100000 steps with 5400 atoms

Performance: 22.193 ns/day, 1.081 hours/ns, 256.864 timesteps/s
69.1% CPU use with 48 MPI tasks x 1 OpenMP threads

MPI task timing breakdown:
Section |  min time  |  avg time  |  max time  |%varavg| %total
---------------------------------------------------------------
Pair    | 169.84     | 197.41     | 218.6      |  84.8 | 50.71
Bond    | 6.3876     | 8.2252     | 9.9211     |  30.1 |  2.11
Kspace  | 40.632     | 63.925     | 96.402     | 149.2 | 16.42
Neigh   | 0.028414   | 0.03001    | 0.031394   |   0.6 |  0.01
Comm    | 87.406     | 97.358     | 117.38     |  75.0 | 25.01
Output  | 0.1203     | 0.13053    | 0.14647    |   1.4 |  0.03
Modify  | 0.56915    | 0.65778    | 1.1105     |  14.7 |  0.17
Other   |            | 21.57      |            |       |  5.54

Nlocal:    112.5 ave 123 max 99 min
Histogram: 2 2 4 6 6 4 6 11 3 4
Nghost:    6637 ave 6685 max 6601 min
Histogram: 4 4 6 9 7 8 5 1 3 1
Neighs:    81739.6 ave 89933 max 71612 min
Histogram: 3 2 4 3 6 10 7 3 6 4

Total # of neighbors = 3923501
Ave neighs/atom = 726.574
Ave special neighs/atom = 10.4444
Neighbor list builds = 8
Dangerous builds = 0
# >>>>>>>>>  Equilibration run <<<<<<<<<<<<<<<<<<<<<<<<<<<<<<<<<<

fix             NVT_equib all nvt temp ${simulationTemp} ${simulationTemp} 100
fix             NVT_equib all nvt temp 283 ${simulationTemp} 100
fix             NVT_equib all nvt temp 283 283 100

print           "Step Density Temperature Pressure KinEng PotEng TotEng" file Properties_equib_283k.txt
Step Density Temperature Pressure KinEng PotEng TotEng
fix             PRINT_equib all print ${printfreq} "$(v_step) $(v_density) $(v_temp) $(v_press) $(v_pe) $(v_ke) $(v_etotal) $(v_enthalpy)" append Properties_equib_283k.txt title ""
fix             PRINT_equib all print 1000 "$(v_step) $(v_density) $(v_temp) $(v_press) $(v_pe) $(v_ke) $(v_etotal) $(v_enthalpy)" append Properties_equib_283k.txt title ""
# The 'print' and fix print' commands as used above will create a file named 'Properties_equib.txt' which allows you to quickly make plots to test for equilibration


run             ${NVT_equib}
run             100000
Ewald initialization ...
  using 12-bit tables for long-range coulomb (src/kspace.cpp:332)
  G vector (1/distance) = 0.142485
  estimated absolute RMS force accuracy = 0.0338118
  estimated relative force accuracy = 0.000101823
  KSpace vectors: actual max1d max3d = 128 4 364
                  kxmax kymax kzmax  = 4 4 4
Per MPI rank memory allocation (min/avg/max) = 22.52 | 22.56 | 22.89 Mbytes
Step Volume Temp Press KinEng PotEng TotEng Enthalpy E_vdwl E_coul E_pair E_bond E_angle E_dihed E_impro E_mol E_long E_tail Lx Ly Lz Xy Xz Yz Density 
  150518    52505.208    277.84408    2074.4452    4471.4541    2173.6988    6645.1529    8233.6274   -1944.1656    3866.4832   -2567.7629    1568.4707    2394.1519    778.83905            0    4741.4617   -4490.0805   -51.832201      37.4456      37.4456      37.4456            0            0            0   0.82372725 
151000 0.82372724821372100834 286.30144508421000182 -256.75871254126502663 2040.92118964356996 4607.5618038924503708 6648.4829935360203308 6451.8739637375501843
  151000    52505.208    286.30145   -256.75871    4607.5618    2040.9212     6648.483     6451.874   -1914.3846    3838.4754   -2565.7113    1538.1075    2285.0102    783.51481            0    4606.6325   -4489.8021   -51.832201      37.4456      37.4456      37.4456            0            0            0   0.82372725 
152000 0.82372724821372100834 280.08775365968000415 360.76945099874200196 2202.1421520683197741 4507.5624229587801892 6709.7045750270999633 6985.9582259344297199
  152000    52505.208    280.08775    360.76945    4507.5624    2202.1422    6709.7046    6985.9582   -1887.8802    3819.0811   -2558.5938    1575.4438    2399.7916    785.50049            0     4760.736   -4489.7947   -51.832201      37.4456      37.4456      37.4456            0            0            0   0.82372725 
153000 0.82372724821372100834 279.48240439854600936 90.440032336474800445 2068.7970027022201975 4497.820299118659932 6566.6173018208801295 6635.8703637194503244
  153000    52505.208     279.4824    90.440032    4497.8203     2068.797    6566.6173    6635.8704   -1948.4622    3896.1768   -2542.9814    1511.5135     2318.672    781.59287            0    4611.7784    -4490.696   -51.832201      37.4456      37.4456      37.4456            0            0            0   0.82372725 
154000 0.82372724821372100834 283.32470454125700599 1132.5778116693500124 2114.2243339150500105 4559.6559471065302205 6673.8802810215902355 7541.1342975247498543
  154000    52505.208     283.3247    1132.5778    4559.6559    2114.2243    6673.8803    7541.1343   -1924.8354    3857.8991   -2556.7212    1535.8248    2345.3833    789.73741            0    4670.9455   -4489.7848   -51.832201      37.4456      37.4456      37.4456            0            0            0   0.82372725 
155000 0.82372724821372100834 285.85746607463801183 -251.20421207940100317 2165.2171641798900055 4600.4166750034701181 6765.6338391833596688 6573.2780825689296762
  155000    52505.208    285.85747   -251.20421    4600.4167    2165.2172    6765.6338    6573.2781   -1922.7167    3870.4513   -2542.2073    1557.4694    2377.4132    772.54191            0    4707.4244    -4489.942   -51.832201      37.4456      37.4456      37.4456            0            0            0   0.82372725 
156000 0.82372724821372100834 278.56671742434002681 421.86525615269800937 2129.2460387004898621 4483.0837883566200617 6612.3298270571103785 6935.3666498271995806
  156000    52505.208    278.56672    421.86526    4483.0838     2129.246    6612.3298    6935.3666   -1937.3421    3863.9448   -2563.3038    1574.3891    2357.4837    760.67707            0    4692.5499   -4489.9065   -51.832201      37.4456      37.4456      37.4456            0            0            0   0.82372725 
157000 0.82372724821372100834 283.03850207520702043 -1383.8273507863400482 2088.8573711467802241 4555.0499782111801323 6643.9073493579599017 5584.2628677594102555
  157000    52505.208     283.0385   -1383.8274      4555.05    2088.8574    6643.9073    5584.2629   -1959.4924    3853.7914   -2593.5389    1581.1343    2348.8133     752.4487            0    4682.3963    -4487.838   -51.832201      37.4456      37.4456      37.4456            0            0            0   0.82372725 
158000 0.82372724821372100834 277.78552898307799524 -775.83795794699801718 2173.7746227172101499 4470.5118154050196608 6644.2864381222298107 6050.2004704716700871
  158000    52505.208    277.78553   -775.83796    4470.5118    2173.7746    6644.2864    6050.2005   -1961.2507    3907.5056   -2544.4292    1625.0898     2348.052    745.06208            0    4718.2038   -4490.6841   -51.832201      37.4456      37.4456      37.4456            0            0            0   0.82372725 
159000 0.82372724821372100834 288.16853627531997972 147.48839844253998876 2093.623820561319917 4637.6096370566001497 6731.2334576179200667 6844.1704272627603132
  159000    52505.208    288.16854     147.4884    4637.6096    2093.6238    6731.2335    6844.1704    -1901.153    3829.6172   -2560.7038    1582.1701    2323.4446    748.71301            0    4654.3276   -4489.1679   -51.832201      37.4456      37.4456      37.4456            0            0            0   0.82372725 
160000 0.82372724821372100834 287.21368225129202756 -281.92389767889397945 2063.2376551461097733 4622.2427955511002438 6685.4804506972095623 6469.6015679475403886
  160000    52505.208    287.21368    -281.9239    4622.2428    2063.2377    6685.4805    6469.6016   -1960.6813    3918.0541   -2530.3868    1525.4908    2325.1834    742.95028            0    4593.6244   -4487.7595   -51.832201      37.4456      37.4456      37.4456            0            0            0   0.82372725 
161000 0.82372724821372100834 282.45013376487599999 144.75978358478900532 1966.0456113270499827 4545.5811354936604403 6511.6267468207097409 6622.4743216614997436
  161000    52505.208    282.45013    144.75978    4545.5811    1966.0456    6511.6267    6622.4743   -1956.0289    3888.0968   -2555.0863    1495.3908    2299.2639    726.47725            0     4521.132   -4487.1543   -51.832201      37.4456      37.4456      37.4456            0            0            0   0.82372725 
162000 0.82372724821372100834 283.84866098544199531 -90.99538302565700576 2108.0681557966699984 4568.0881843186698461 6676.1563401153398445 6606.4780269794600827
  162000    52505.208    283.84866   -90.995383    4568.0882    2108.0682    6676.1563     6606.478   -1921.9099    3889.6386   -2519.9196     1570.555    2312.0868    745.34595            0    4627.9878   -4487.6483   -51.832201      37.4456      37.4456      37.4456            0            0            0   0.82372725 
163000 0.82372724821372100834 280.76831169774902719 -19.031640571895501068 2082.094244986420108 4518.514911237760316 6600.6091562241799693 6586.0359705617402142
  163000    52505.208    280.76831   -19.031641    4518.5149    2082.0942    6600.6092     6586.036   -1957.8604    3883.1602   -2562.1907    1553.1574    2321.3416    769.78592            0     4644.285   -4487.4906   -51.832201      37.4456      37.4456      37.4456            0            0            0   0.82372725 
164000 0.82372724821372100834 279.37885450334601956 1055.195170508540059 2085.3721156276501461 4496.1538299124804325 6581.5259455401301238 7389.5253963411496443
  164000    52505.208    279.37885    1055.1952    4496.1538    2085.3721    6581.5259    7389.5254   -1965.6357    3922.2044   -2532.2951    1542.4415    2339.5107    735.71507            0    4617.6673   -4488.8638   -51.832201      37.4456      37.4456      37.4456            0            0            0   0.82372725 
165000 0.82372724821372100834 285.42279461942797525 -866.21087086719103354 2162.7091918202600027 4593.4213362489499559 6756.1305280692004089 6092.8428941793799822
  165000    52505.208    285.42279   -866.21087    4593.4213    2162.7092    6756.1305    6092.8429   -1945.1764    3888.4172   -2546.6143    1586.7109    2359.1377    763.47486            0    4709.3235   -4489.8551   -51.832201      37.4456      37.4456      37.4456            0            0            0   0.82372725 
166000 0.82372724821372100834 281.71580503362901027 1076.5871300452799915 2109.230241416500121 4533.7632942927602926 6642.9935357092499544 7467.3735500688899265
  166000    52505.208    281.71581    1076.5871    4533.7633    2109.2302    6642.9935    7467.3736   -1919.7343    3865.2814   -2542.8964    1559.7426     2319.753    772.63103            0    4652.1266   -4488.4434   -51.832201      37.4456      37.4456      37.4456            0            0            0   0.82372725 
167000 0.82372724821372100834 281.28881841381797813 494.14273342064802819 2153.1340929562102247 4526.8916306179999083 6680.0257235742101329 7058.4079114198802927
  167000    52505.208    281.28882    494.14273    4526.8916    2153.1341    6680.0257    7058.4079   -1954.6644    3884.4967   -2559.3234    1598.2364    2353.8742    760.34699            0    4712.4575   -4489.1557   -51.832201      37.4456      37.4456      37.4456            0            0            0   0.82372725 
168000 0.82372724821372100834 285.35496679682700005 375.27583587507001539 2091.7435371887900146 4592.3297564123004122 6684.0732936010899721 6971.4349853152598371
  168000    52505.208    285.35497    375.27584    4592.3298    2091.7435    6684.0733     6971.435   -1946.8605    3888.2589   -2548.5223    1577.3202    2313.2028    749.74285            0    4640.2658   -4489.9207   -51.832201      37.4456      37.4456      37.4456            0            0            0   0.82372725 
169000 0.82372724821372100834 287.74425658001598549 1277.6262504460698892 2173.5265468572902137 4630.7815369829995689 6804.3080838402902373 7782.6307084519003183
  169000    52505.208    287.74426    1277.6263    4630.7815    2173.5265    6804.3081    7782.6307   -1903.0413    3890.1268   -2501.9376     1581.621    2339.5117    754.33145            0    4675.4641   -4489.0231   -51.832201      37.4456      37.4456      37.4456            0            0            0   0.82372725 
170000 0.82372724821372100834 282.34890367619402696 -884.61990555069405673 2064.8785326944098415 4543.9519998465202661 6608.8305325409301076 5931.4464638589697643
  170000    52505.208     282.3489   -884.61991     4543.952    2064.8785    6608.8305    5931.4465   -1954.8787    3913.3777   -2530.8122    1533.3574    2310.3148    752.01865            0    4595.6908   -4489.3111   -51.832201      37.4456      37.4456      37.4456            0            0            0   0.82372725 
171000 0.82372724821372100834 286.55373441514399246 -948.1975037187429507 2178.796738885349896 4611.6219953609197546 6790.4187342462701054 6064.3510989230198902
  171000    52505.208    286.55373    -948.1975     4611.622    2178.7967    6790.4187    6064.3511   -1932.9745    3890.3756   -2531.3922      1603.33    2359.1208    747.73817            0    4710.1889   -4488.7933   -51.832201      37.4456      37.4456      37.4456            0            0            0   0.82372725 
172000 0.82372724821372100834 285.62900304403001428 -627.1496906236200175 2096.4684852204800336 4596.7399295608302054 6693.2084147813102391 6212.9781978919500034
  172000    52505.208      285.629   -627.14969    4596.7399    2096.4685    6693.2084    6212.9782   -1952.8238    3891.3836    -2548.923    1522.7457    2357.7361    764.90972            0    4645.3915   -4487.4828   -51.832201      37.4456      37.4456      37.4456            0            0            0   0.82372725 
173000 0.82372724821372100834 282.04313273643401772 -294.56749414410899135 2171.0323455128600472 4539.031107804329622 6710.0634533171896692 6484.5029312977703739
  173000    52505.208    282.04313   -294.56749    4539.0311    2171.0323    6710.0635    6484.5029   -1923.2022    3859.6029   -2552.6406    1587.2643    2378.6654    757.74325            0    4723.6729   -4489.0413   -51.832201      37.4456      37.4456      37.4456            0            0            0   0.82372725 
174000 0.82372724821372100834 279.80893414073602798 541.76968240471501304 1986.4834942651400524 4503.0752707360998102 6489.5587650012403174 6904.410555530849706
  174000    52505.208    279.80893    541.76968    4503.0753    1986.4835    6489.5588    6904.4106   -1954.7217    3877.7404   -2564.6908    1528.1816    2301.7173    721.27543            0    4551.1743   -4487.7094   -51.832201      37.4456      37.4456      37.4456            0            0            0   0.82372725 
175000 0.82372724821372100834 285.15834324742002082 -83.850288182932501968 2046.5798443251298977 4589.1654162681998059 6635.7452605933303857 6571.5381937919701159
  175000    52505.208    285.15834   -83.850288    4589.1654    2046.5798    6635.7453    6571.5382   -1961.8256     3891.856   -2559.7286    1519.1241    2344.6721    742.51224            0    4606.3084    -4489.759   -51.832201      37.4456      37.4456      37.4456            0            0            0   0.82372725 
176000 0.82372724821372100834 273.42342145204401049 -273.21269300057497276 2158.9642672759900961 4400.3107025934796184 6559.2749698694697145 6350.0665579413298474
  176000    52505.208    273.42342   -273.21269    4400.3107    2158.9643     6559.275    6350.0666   -1918.4131    3846.5801   -2560.4223    1580.3263    2380.0497    759.01057            0    4719.3866   -4488.5893   -51.832201      37.4456      37.4456      37.4456            0            0            0   0.82372725 
177000 0.82372724821372100834 283.47341636461601411 462.00396009827699118 2147.5285817674998725 4562.0492249919898313 6709.5778067594901586 7063.350223901429672
  177000    52505.208    283.47342    462.00396    4562.0492    2147.5286    6709.5778    7063.3502   -1919.1511    3858.8404   -2551.0589    1592.3289    2351.9744    754.28417            0    4698.5875   -4490.7482   -51.832201      37.4456      37.4456      37.4456            0            0            0   0.82372725 
178000 0.82372724821372100834 277.42970517798102037 691.02326744317895191 2017.833321722160008 4464.7854029071795594 6482.6187246293402495 7011.7591492540495892
  178000    52505.208    277.42971    691.02327    4464.7854    2017.8333    6482.6187    7011.7591   -1942.6715    3896.2194   -2537.3486     1516.381    2299.8138    738.98715            0     4555.182   -4490.8966   -51.832201      37.4456      37.4456      37.4456            0            0            0   0.82372725 
179000 0.82372724821372100834 288.73268208949997415 240.58371189492899589 2035.5234857252501115 4646.6886576129800233 6682.2121433382299074 6866.4354155022701889
  179000    52505.208    288.73268    240.58371    4646.6887    2035.5235    6682.2121    6866.4354   -1936.8602     3908.878    -2518.628    1517.7927    2307.8122    728.54659            0    4554.1515   -4490.6458   -51.832201      37.4456      37.4456      37.4456            0            0            0   0.82372725 
180000 0.82372724821372100834 286.12315240577402164 814.40371392844303955 2156.9168121248399075 4604.6924696673504513 6761.6092817921899041 7385.2263831359796313
  180000    52505.208    286.12315    814.40371    4604.6925    2156.9168    6761.6093    7385.2264   -1904.2961    3872.0011   -2523.5854    1527.0409    2429.6638    723.79748            0    4680.5022   -4491.2904   -51.832201      37.4456      37.4456      37.4456            0            0            0   0.82372725 
181000 0.82372724821372100834 282.75373277348501233 871.92734113219898973 2053.3961713627400059 4550.4670737932501652 6603.8632451559997207 7271.5281781121302629
  181000    52505.208    282.75373    871.92734    4550.4671    2053.3962    6603.8632    7271.5282   -1906.7985     3846.378   -2550.7981    1528.6254    2322.1103    753.45856            0    4604.1942   -4490.3776   -51.832201      37.4456      37.4456      37.4456            0            0            0   0.82372725 
182000 0.82372724821372100834 284.08579184586699284 190.46547901921400126 2101.5730549546401562 4571.9044245570003113 6673.4774795116400128 6819.3234867198698339
  182000    52505.208    284.08579    190.46548    4571.9044    2101.5731    6673.4775    6819.3235   -1951.8856    3910.6111    -2531.043     1567.762    2340.2368    724.61717            0     4632.616   -4489.7685   -51.832201      37.4456      37.4456      37.4456            0            0            0   0.82372725 
183000 0.82372724821372100834 283.81503939468899489 683.78060504927498187 2073.086594240930026 4567.5470988299402961 6640.6336930708703221 7164.2281605113703336
  183000    52505.208    283.81504    683.78061    4567.5471    2073.0866    6640.6337    7164.2282   -1932.7963    3906.8924   -2515.2965    1578.5122    2260.7828    749.08805            0    4588.3831   -4489.3926   -51.832201      37.4456      37.4456      37.4456            0            0            0   0.82372725 
184000 0.82372724821372100834 286.2900835925560159 -1313.5479494055800842 2105.2824092340401876 4607.3789589369798705 6712.6613681710296078 5706.8322558097397632
  184000    52505.208    286.29008   -1313.5479     4607.379    2105.2824    6712.6614    5706.8323   -1910.0547    3843.3703    -2555.022     1586.599    2324.5921    749.11329            0    4660.3045   -4488.3376   -51.832201      37.4456      37.4456      37.4456            0            0            0   0.82372725 
185000 0.82372724821372100834 282.0745237472689837 203.88734945670398702 2024.6718502872099634 4539.5362956928101994 6564.2081459800301673 6720.3317437661098666
  185000    52505.208    282.07452    203.88735    4539.5363    2024.6719    6564.2081    6720.3317   -1956.7415    3872.8127   -2572.7078    1541.6132    2302.8057    752.96074            0    4597.3797    -4488.779   -51.832201      37.4456      37.4456      37.4456            0            0            0   0.82372725 
186000 0.82372724821372100834 281.68585134286797711 772.04393897238503541 1982.3850248925700726 4533.2812377617501625 6515.666262654320235 7106.847018706599556
  186000    52505.208    281.68585    772.04394    4533.2812     1982.385    6515.6663     7106.847   -1947.3008    3860.8468    -2574.712    1568.9929    2255.5758    732.52828            0     4557.097    -4488.258   -51.832201      37.4456      37.4456      37.4456            0            0            0   0.82372725 
187000 0.82372724821372100834 280.63157303439902535 -212.99355861110100818 1965.2941956258200662 4516.3143221272703158 6481.608517753090382 6318.511980551369561
[...]
253000 0.82372724821372100834 280.61559629024100104 -438.64858016462198975 2042.5105539976000273 4516.0572020973404506 6558.5677560949397957 6222.6793614419802907
  253000    52505.208     280.6156   -438.64858    4516.0572    2042.5106    6558.5678    6222.6794   -1910.4955    3836.1623   -2562.4344    1561.0212    2308.6609    735.26285            0     4604.945   -4488.1013   -51.832201      37.4456      37.4456      37.4456            0            0            0   0.82372725 
254000 0.82372724821372100834 285.19052733197401039 68.844237085785493946 2024.5449529777799853 4589.6833674040899496 6614.2283203818697075 6666.9447346631495748
254000 0.82372724821372100834 285.19052733197401039 68.844237085785493946 2024.5449529777799853 4589.6833674040899496 6614.2283203818697075 6666.9447346631495748
  254000    52505.208    285.19053    68.844237    4589.6834     2024.545    6614.2283    6666.9447   -1939.0939    3892.1346    -2534.221    1529.8095     2283.949    745.00753            0    4558.7659   -4487.2617   -51.832201      37.4456      37.4456      37.4456            0            0            0   0.82372725 
255000 0.82372724821372100834 277.49436690421401863 -1395.6421550731399748 2010.8083537660700131 4465.8260295092395609 6476.6343832753200331 5407.9428972534497007
255000 0.82372724821372100834 277.49436690421401863 -1395.6421550731399748 2010.8083537660700131 4465.8260295092395609 6476.6343832753200331 5407.9428972534497007
  255000    52505.208    277.49437   -1395.6422     4465.826    2010.8084    6476.6344    5407.9429   -1926.0231    3852.7139   -2562.1874    1588.8722    2248.4612    735.66242            0    4572.9958   -4488.8782   -51.832201      37.4456      37.4456      37.4456            0            0            0   0.82372725 
256000 0.82372724821372100834 284.68900314537097529 -276.48235296940498529 2071.8468905144700329 4581.6121413393902913 6653.4590318538603242 6441.7469281604799107
256000 0.82372724821372100834 284.68900314537097529 -276.48235296940498529 2071.8468905144700329 4581.6121413393902913 6653.4590318538603242 6441.7469281604799107
  256000    52505.208      284.689   -276.48235    4581.6121    2071.8469     6653.459    6441.7469   -1956.8463    3876.9595   -2568.1109    1598.2629    2306.7018    734.99318            0    4639.9578   -4488.2242   -51.832201      37.4456      37.4456      37.4456            0            0            0   0.82372725 
257000 0.82372724821372100834 279.64681942934998915 -492.61948872341798733 2069.3077296575697801 4500.4662949001103698 6569.7740245576796951 6192.5582378794897522
257000 0.82372724821372100834 279.64681942934998915 -492.61948872341798733 2069.3077296575697801 4500.4662949001103698 6569.7740245576796951 6192.5582378794897522
  257000    52505.208    279.64682   -492.61949    4500.4663    2069.3077     6569.774    6192.5582   -1949.7909    3843.4374   -2594.0502    1573.5057    2346.4874    743.36476            0    4663.3579   -4487.6967   -51.832201      37.4456      37.4456      37.4456            0            0            0   0.82372725 
258000 0.82372724821372100834 286.93235593536797978 -1363.3432286609499897 2098.7850596965699879 4617.71530045829968 6716.5003601548596635 5672.5412795987504069
258000 0.82372724821372100834 286.93235593536797978 -1363.3432286609499897 2098.7850596965699879 4617.71530045829968 6716.5003601548596635 5672.5412795987504069
  258000    52505.208    286.93236   -1363.3432    4617.7153    2098.7851    6716.5004    5672.5413   -1948.9742    3866.1153   -2571.1571    1600.4643    2338.8351     730.6428            0    4669.9422   -4488.2982   -51.832201      37.4456      37.4456      37.4456            0            0            0   0.82372725 
259000 0.82372724821372100834 285.36928080415202658 589.67927346754299833 2093.335040090179973 4592.5601173641798596 6685.8951574543598326 7137.4329794867499004
259000 0.82372724821372100834 285.36928080415202658 589.67927346754299833 2093.335040090179973 4592.5601173641798596 6685.8951574543598326 7137.4329794867499004
  259000    52505.208    285.36928    589.67927    4592.5601     2093.335    6685.8952     7137.433   -1924.3599    3837.1046   -2575.6062    1580.1857     2373.263    715.49254            0    4668.9412   -4488.3509   -51.832201      37.4456      37.4456      37.4456            0            0            0   0.82372725 
260000 0.82372724821372100834 283.83822919388398986 2110.8042178478199276 2049.6225155860402083 4567.9203013926398853 6617.5428169786800936 8233.858638389780026
260000 0.82372724821372100834 283.83822919388398986 2110.8042178478199276 2049.6225155860402083 4567.9203013926398853 6617.5428169786800936 8233.858638389780026
  260000    52505.208    283.83823    2110.8042    4567.9203    2049.6225    6617.5428    8233.8586   -1912.0673    3871.1778   -2528.5258    1525.5678    2337.2026    715.37785            0    4578.1483   -4487.6362   -51.832201      37.4456      37.4456      37.4456            0            0            0   0.82372725 
261000 0.82372724821372100834 282.39722663238899258 -823.69495077996396049 2068.0407457498199619 4544.7296801937000055 6612.7704259435204222 5982.0387030746196615
261000 0.82372724821372100834 282.39722663238899258 -823.69495077996396049 2068.0407457498199619 4544.7296801937000055 6612.7704259435204222 5982.0387030746196615
  261000    52505.208    282.39723   -823.69495    4544.7297    2068.0407    6612.7704    5982.0387   -1911.4289    3855.6918   -2544.1422    1555.3473    2319.6113    737.22437            0     4612.183   -4488.4052   -51.832201      37.4456      37.4456      37.4456            0            0            0   0.82372725 
262000 0.82372724821372100834 283.54823956221497383 548.60865004445099657 2044.9851214461300515 4563.2533841508902697 6608.2385055970298708 7028.3271302701095919
262000 0.82372724821372100834 283.54823956221497383 548.60865004445099657 2044.9851214461300515 4563.2533841508902697 6608.2385055970298708 7028.3271302701095919
  262000    52505.208    283.54824    548.60865    4563.2534    2044.9851    6608.2385    7028.3271    -1932.199    3864.0262   -2556.0337    1631.1098    2251.7299    718.17899            0    4601.0188   -4487.8609   -51.832201      37.4456      37.4456      37.4456            0            0            0   0.82372725 
263000 0.82372724821372100834 283.84048403430301732 801.64277023495799313 2006.607194620070004 4567.9565894266897885 6574.5637840467597925 7188.4093892880200656
263000 0.82372724821372100834 283.84048403430301732 801.64277023495799313 2006.607194620070004 4567.9565894266897885 6574.5637840467597925 7188.4093892880200656
  263000    52505.208    283.84048    801.64277    4567.9566    2006.6072    6574.5638    7188.4094   -1925.0309      3840.15    -2571.783    1559.5401    2299.9355    718.91451            0    4578.3902   -4486.9021   -51.832201      37.4456      37.4456      37.4456            0            0            0   0.82372725 
264000 0.82372724821372100834 286.3133151368090239 -20.354581515422598414 2040.3321630645900768 4607.7528333193204162 6648.0849963839100383 6632.4987890685197272
264000 0.82372724821372100834 286.3133151368090239 -20.354581515422598414 2040.3321630645900768 4607.7528333193204162 6648.0849963839100383 6632.4987890685197272
  264000    52505.208    286.31332   -20.354582    4607.7528    2040.3322     6648.085    6632.4988     -1916.45    3832.9049   -2571.0292    1543.2313    2332.4253     735.7048            0    4611.3613   -4487.4841   -51.832201      37.4456      37.4456      37.4456            0            0            0   0.82372725 
265000 0.82372724821372100834 280.57802369115199781 -126.42322809577099463 1974.287210166909972 4515.452531476889817 6489.7397416437897846 6392.9331017682097809
265000 0.82372724821372100834 280.57802369115199781 -126.42322809577099463 1974.287210166909972 4515.452531476889817 6489.7397416437897846 6392.9331017682097809
  265000    52505.208    280.57802   -126.42323    4515.4525    1974.2872    6489.7397    6392.9331   -1901.3915     3819.559   -2569.0719    1522.0532    2295.0124    726.29361            0    4543.3592   -4487.2395   -51.832201      37.4456      37.4456      37.4456            0            0            0   0.82372725 
266000 0.82372724821372100834 287.29602653915497967 -319.7900592489149858 1979.8368773010399764 4623.5679945748597675 6603.4048718759004259 6358.5305590791303985
266000 0.82372724821372100834 287.29602653915497967 -319.7900592489149858 1979.8368773010399764 4623.5679945748597675 6603.4048718759004259 6358.5305590791303985
  266000    52505.208    287.29603   -319.79006     4623.568    1979.8369    6603.4049    6358.5306    -1929.863    3864.8914    -2553.604    1540.5561    2290.0739    702.81088            0    4533.4409   -4488.6325   -51.832201      37.4456      37.4456      37.4456            0            0            0   0.82372725 
267000 0.82372724821372100834 281.70320175078200009 -139.2528790271150001 2047.0859051464899494 4533.5604647030104388 6580.6463698494999335 6474.0156223621497702
267000 0.82372724821372100834 281.70320175078200009 -139.2528790271150001 2047.0859051464899494 4533.5604647030104388 6580.6463698494999335 6474.0156223621497702
  267000    52505.208     281.7032   -139.25288    4533.5605    2047.0859    6580.6464    6474.0156     -1948.77    3832.4608   -2604.1689    1594.4241    2341.2612    715.56944            0    4651.2548   -4487.8597   -51.832201      37.4456      37.4456      37.4456            0            0            0   0.82372725 
268000 0.82372724821372100834 284.43509748150597716 -2411.8137206312699163 2021.9718761131800875 4577.5259375891100717 6599.4978137022899318 4752.6886013692901543
268000 0.82372724821372100834 284.43509748150597716 -2411.8137206312699163 2021.9718761131800875 4577.5259375891100717 6599.4978137022899318 4752.6886013692901543
  268000    52505.208     284.4351   -2411.8137    4577.5259    2021.9719    6599.4978    4752.6886   -1954.8768    3800.7212   -2641.4673    1628.2193    2338.8653    696.35456            0    4663.4392   -4487.3118   -51.832201      37.4456      37.4456      37.4456            0            0            0   0.82372725 
269000 0.82372724821372100834 281.6013556164339775 -20.627917313799699173 1937.4603514054199422 4531.9214147905704522 6469.381766195990167 6453.5862562026195519
269000 0.82372724821372100834 281.6013556164339775 -20.627917313799699173 1937.4603514054199422 4531.9214147905704522 6469.381766195990167 6453.5862562026195519
  269000    52505.208    281.60136   -20.627917    4531.9214    1937.4604    6469.3818    6453.5863   -1960.4572    3834.3784    -2613.456    1592.2269    2265.9946    692.69486            0    4550.9164   -4487.3773   -51.832201      37.4456      37.4456      37.4456            0            0            0   0.82372725 
270000 0.82372724821372100834 284.18358391483201331 46.533616657527097971 1970.1346228646800682 4573.4782308001103956 6543.6128536647902365 6579.2452539580399389
270000 0.82372724821372100834 284.18358391483201331 46.533616657527097971 1970.1346228646800682 4573.4782308001103956 6543.6128536647902365 6579.2452539580399389
  270000    52505.208    284.18358    46.533617    4573.4782    1970.1346    6543.6129    6579.2453   -1951.2828    3869.4777   -2571.4849    1569.3379    2291.3028    680.97876            0    4541.6195   -4489.6798   -51.832201      37.4456      37.4456      37.4456            0            0            0   0.82372725 
271000 0.82372724821372100834 278.41987105154197479 -752.39760342860097353 2049.9772756296401894 4480.7205319010099629 6530.6978075306396931 5954.5609303486398858
271000 0.82372724821372100834 278.41987105154197479 -752.39760342860097353 2049.9772756296401894 4480.7205319010099629 6530.6978075306396931 5954.5609303486398858
  271000    52505.208    278.41987    -752.3976    4480.7205    2049.9773    6530.6978    5954.5609   -1910.6697    3818.4763    -2580.272    1597.5788    2336.0766    696.59388            0    4630.2493   -4488.0786   -51.832201      37.4456      37.4456      37.4456            0            0            0   0.82372725 
272000 0.82372724821372100834 282.03991708605997246 -1207.2268786705799357 1956.9524315645699062 4538.9793570776400884 6495.9317886422104493 5571.5163987499599898
272000 0.82372724821372100834 282.03991708605997246 -1207.2268786705799357 1956.9524315645699062 4538.9793570776400884 6495.9317886422104493 5571.5163987499599898
  272000    52505.208    282.03992   -1207.2269    4538.9794    1956.9524    6495.9318    5571.5164   -1931.2424    3796.2936   -2622.7299    1538.5604    2328.3025     712.8194            0    4579.6823    -4487.781   -51.832201      37.4456      37.4456      37.4456            0            0            0   0.82372725 
273000 0.82372724821372100834 281.74819425041198429 1719.6978907958800846 1960.6725858183799573 4534.2845467023098536 6494.9571325206898109 7811.7893074036501275
273000 0.82372724821372100834 281.74819425041198429 1719.6978907958800846 1960.6725858183799573 4534.2845467023098536 6494.9571325206898109 7811.7893074036501275
  273000    52505.208    281.74819    1719.6979    4534.2845    1960.6726    6494.9571    7811.7893   -1938.8877    3817.4932   -2611.1926    1563.8921    2314.2255    693.74766            0    4571.8652   -4489.7981   -51.832201      37.4456      37.4456      37.4456            0            0            0   0.82372725 
274000 0.82372724821372100834 284.09478619269202682 -1298.3724543544299195 2023.5247876079999969 4572.0491741193600319 6595.5739617273602562 5601.3652509843295775
274000 0.82372724821372100834 284.09478619269202682 -1298.3724543544299195 2023.5247876079999969 4572.0491741193600319 6595.5739617273602562 5601.3652509843295775
  274000    52505.208    284.09479   -1298.3725    4572.0492    2023.5248     6595.574    5601.3653   -1950.5879    3836.9576   -2600.5492    1641.3192    2264.4002    718.35453            0    4624.0739   -4486.9189   -51.832201      37.4456      37.4456      37.4456            0            0            0   0.82372725 
275000 0.82372724821372100834 280.05594583278400478 523.0743406532519657 1971.3077229762300249 4507.0505270854300761 6478.3582500616603284 6878.894370571249965
275000 0.82372724821372100834 280.05594583278400478 523.0743406532519657 1971.3077229762300249 4507.0505270854300761 6478.3582500616603284 6878.894370571249965
  275000    52505.208    280.05595    523.07434    4507.0505    1971.3077    6478.3583    6878.8944   -1919.1474    3787.0772   -2620.5608    1633.1006    2295.2977    663.47027            0    4591.8686   -4488.4906   -51.832201      37.4456      37.4456      37.4456            0            0            0   0.82372725 
276000 0.82372724821372100834 284.79177078779400745 936.6811399946769825 1997.8852012052300324 4583.2660214438701587 6581.1512226491004185 7298.4003798136800469
276000 0.82372724821372100834 284.79177078779400745 936.6811399946769825 1997.8852012052300324 4583.2660214438701587 6581.1512226491004185 7298.4003798136800469
  276000    52505.208    284.79177    936.68114     4583.266    1997.8852    6581.1512    7298.4004   -1922.9869    3817.9886   -2590.4313    1579.0526    2306.8611    702.40282            0    4588.3165    -4485.433   -51.832201      37.4456      37.4456      37.4456            0            0            0   0.82372725 
277000 0.82372724821372100834 280.0450292551649909 436.76137141902700023 2094.9071634398101196 4506.8748423065699171 6601.782005746379582 6936.2252993672200319
277000 0.82372724821372100834 280.0450292551649909 436.76137141902700023 2094.9071634398101196 4506.8748423065699171 6601.782005746379582 6936.2252993672200319
  277000    52505.208    280.04503    436.76137    4506.8748    2094.9072     6601.782    6936.2253   -1934.0364    3822.2637   -2599.9287    1618.8257    2359.8999    716.11035            0    4694.8359   -4488.1561   -51.832201      37.4456      37.4456      37.4456            0            0            0   0.82372725 
278000 0.82372724821372100834 284.41460409764897577 63.191323332959100867 1975.6760875702000249 4577.1961294993698175 6552.8722170695600653 6601.2599997049001104
278000 0.82372724821372100834 284.41460409764897577 63.191323332959100867 1975.6760875702000249 4577.1961294993698175 6552.8722170695600653 6601.2599997049001104
  278000    52505.208     284.4146    63.191323    4577.1961    1975.6761    6552.8722      6601.26   -1965.7895    3839.5541    -2615.355    1552.1393    2338.6351    700.25667            0     4591.031   -4489.1195   -51.832201      37.4456      37.4456      37.4456            0            0            0   0.82372725 
279000 0.82372724821372100834 286.50723357542301528 374.14929757303798397 2028.3081515265100734 4610.8736390510803176 6639.1817905775897088 6925.6808529367399387
279000 0.82372724821372100834 286.50723357542301528 374.14929757303798397 2028.3081515265100734 4610.8736390510803176 6639.1817905775897088 6925.6808529367399387
  279000    52505.208    286.50723     374.1493    4610.8736    2028.3082    6639.1818    6925.6809   -1957.8929    3844.5091   -2601.6889    1567.9767     2352.338     709.6824            0     4629.997   -4488.3051   -51.832201      37.4456      37.4456      37.4456            0            0            0   0.82372725 
280000 0.82372724821372100834 284.72567427216500846 -1199.803820591800104 1920.1489240798500759 4582.2023042115097269 6502.3512282913497984 5583.6199308007298896
280000 0.82372724821372100834 284.72567427216500846 -1199.803820591800104 1920.1489240798500759 4582.2023042115097269 6502.3512282913497984 5583.6199308007298896
  280000    52505.208    284.72567   -1199.8038    4582.2023    1920.1489    6502.3512    5583.6199   -1930.6123    3800.0651   -2619.1702    1547.6072    2304.9504    686.76149            0    4539.3191    -4488.623   -51.832201      37.4456      37.4456      37.4456            0            0            0   0.82372725 
  280518    52505.208    280.38469    -341.0232    4512.3412    1928.3307    6440.6719    6179.5386   -1937.0202     3806.433   -2619.9876    1551.6605    2294.5144    702.14339            0    4548.3183   -4489.4004   -51.832201      37.4456      37.4456      37.4456            0            0            0   0.82372725 
Loop time of 141.12 on 48 procs for 30000 steps with 5400 atoms

Performance: 18.367 ns/day, 1.307 hours/ns, 212.585 timesteps/s
67.4% CPU use with 48 MPI tasks x 1 OpenMP threads

MPI task timing breakdown:
Section |  min time  |  avg time  |  max time  |%varavg| %total
---------------------------------------------------------------
Pair    | 53.342     | 59.218     | 64.559     |  30.2 | 41.96
Bond    | 2.039      | 2.4767     | 2.8819     |  11.1 |  1.76
Kspace  | 15.962     | 22.333     | 27.101     |  53.4 | 15.83
Neigh   | 11.798     | 12.358     | 12.784     |  10.2 |  8.76
Comm    | 30.795     | 33.874     | 39.657     |  38.8 | 24.00
Output  | 0.2595     | 0.25986    | 0.26004    |   0.0 |  0.18
Modify  | 2.715      | 6.4084     | 8.9032     |  59.0 |  4.54
Other   |            | 4.192      |            |       |  2.97

Nlocal:    112.5 ave 129 max 96 min
Histogram: 3 2 7 5 7 5 8 6 4 1
Nghost:    6646.17 ave 6688 max 6591 min
Histogram: 1 1 4 2 8 11 10 6 3 2
Neighs:    81770.4 ave 96843 max 66388 min
Histogram: 2 0 6 6 9 9 9 6 0 1

Total # of neighbors = 3924980
Ave neighs/atom = 726.848
Ave special neighs/atom = 10.4444
Neighbor list builds = 3195
Dangerous builds = 0

write_data      restart.${NAME}.final.data
write_data      restart.octanol_283k.final.data
Ewald initialization ...
  using 12-bit tables for long-range coulomb (src/kspace.cpp:332)
  G vector (1/distance) = 0.142485
  estimated absolute RMS force accuracy = 0.0338118
  estimated relative force accuracy = 0.000101823
  KSpace vectors: actual max1d max3d = 128 4 364
                  kxmax kymax kzmax  = 4 4 4
Total wall time: 0:20:55
