LAMMPS data file via write_data, version 3 Mar 2020, timestep = 280482

3600 atoms
6 atom types
3400 bonds
9 bond types
6200 angles
16 angle types
7800 dihedrals
18 dihedral types

0.0000000000000000e+00 3.7445599999999999e+01 xlo xhi
0.0000000000000000e+00 3.7445599999999999e+01 ylo yhi
0.0000000000000000e+00 3.7445599999999999e+01 zlo zhi

Masses

1 12.0108
2 12.0108
3 1.00795
4 15.9994
5 1.00795
6 12.0108

Pair Coeffs # lj/cut/coul/long

1 0.066 3.5
2 0.066 3.5
3 0.03 2.5
4 0.17 3.12
5 0 10
6 0.066 3.5

Bond Coeffs # harmonic

1 268 1.529
2 268 1.529
3 268 1.529
4 268 1.529
5 320 1.41
6 340 1.09
7 340 1.09
8 340 1.09
9 553 0.945

Angle Coeffs # harmonic

1 58.35 112.7
2 37.5 110.7
3 37.5 110.7
4 58.35 112.7
5 37.5 110.7
6 58.35 112.7
7 50 109.5
8 37.5 110.7
9 37.5 110.7
10 37.5 110.7
11 55 108.5
12 50 109.5
13 37.5 110.7
14 35 109.5
15 33 107.8
16 33 107.8

Dihedral Coeffs # opls

1 1.3 -0.05 0.2 -0
2 -0 -0 0.3 -0
3 1.3 -0.05 0.2 -0
4 1.711 -0.5 0.663 -0
5 -0 -0 0.3 -0
6 -0 -0 0.3 -0
7 -0 -0 0.3 -0
8 -0.356 -0.174 0.492 -0
9 -0 -0 0.3 -0
10 -0 -0 0.3 -0
11 -0.356 -0.174 0.492 -0
12 0 -0 0.468 -0
13 0 -0 0.468 -0
14 -0 -0 0.3 -0
15 -0 -0 0.3 -0
16 -0 -0 0.3 -0
17 -0 -0 0.3 -0
18 0 -0 0.45 -0

Atoms # full

3256 181 3 5.9999999999999998e-02 8.5674758477901598e+00 7.9175727917781078e+00 9.2110682111983788e+00 0 0 0
1071 60 3 5.9999999999999998e-02 1.1790555904372704e+01 1.8951321209964707e+00 8.4398408139130190e+00 1 0 0
3245 181 1 -1.7999999999999999e-01 7.7571155382553165e+00 7.2317799183432614e+00 9.3239148100236466e+00 0 0 0
3257 181 3 5.9999999999999998e-02 7.7014691250335012e+00 6.7533922581525037e+00 8.3327601616219358e+00 0 0 0
2118 118 3 5.9999999999999998e-02 4.8666247271432646e+00 3.6722828114150499e+00 1.7612167416033298e+01 0 0 0
149 9 1 -1.7999999999999999e-01 1.2229231635223913e+01 6.7484631324816542e+00 1.5040564245164502e+01 1 0 0
2128 119 6 2.0499999999999999e-01 3.1034083382154911e+00 5.2737470583405988e-01 1.5921026276160706e+01 1 1 0
2140 119 3 5.9999999999999998e-02 2.0703917238205669e+00 6.7170815775918602e-01 1.7816930299266360e+01 1 1 0
148 9 6 2.0499999999999999e-01 1.1973214617265127e+01 7.3865288844531491e+00 1.6465623870020245e+01 1 0 0
3247 181 3 5.9999999999999998e-02 4.6580159346585726e+00 4.4521063480221379e+00 1.2392264121672330e+01 0 0 0
750 42 3 5.9999999999999998e-02 8.5886295906439596e+00 2.6810212305697223e+00 1.2139470527206306e+01 0 0 0
1066 60 6 2.0499999999999999e-01 1.1928993700240607e+01 5.1393760704813278e+00 1.2060502194978435e+01 1 0 0
6 1 4 -6.8300000000000005e-01 1.4871699098865363e+00 3.3157910704036038e+00 1.7602667646853288e+01 0 0 0
2113 118 3 5.9999999999999998e-02 7.3230077379803697e+00 5.6223163127952409e+00 1.7482960803108881e+01 0 0 0
154 9 3 5.9999999999999998e-02 9.7882314054603636e+00 8.7472335061528224e+00 1.5116301205199722e+01 1 0 0
17 1 3 5.9999999999999998e-02 1.0588538870424504e+00 5.5279933373055554e+00 1.5048743429145116e+01 0 0 0
3248 181 3 5.9999999999999998e-02 4.3512812542529575e+00 5.8546866665818067e+00 1.3306233366975047e+01 0 0 0
1064 60 2 -1.2000000000000000e-01 1.1455858322094279e+01 3.4477535236780645e+00 1.0015227465536203e+01 1 0 0
978 55 4 -6.8300000000000005e-01 1.1383506389492645e+01 1.9156861191881143e+00 1.5995623430506749e+01 0 1 0
3253 181 3 5.9999999999999998e-02 6.6550266477464035e+00 4.7274722606565049e+00 1.0293984827889098e+01 0 0 0
3250 181 3 5.9999999999999998e-02 5.2501444825446004e+00 6.4740773145306587e+00 1.1044652046335676e+01 0 0 0
3255 181 3 5.9999999999999998e-02 6.8229975510532253e+00 7.7842691865540337e+00 9.5194580300521672e+00 0 0 0
739 42 1 -1.7999999999999999e-01 7.6094613914157003e+00 8.2967394100094252e-02 1.2328990701448925e+01 0 0 0
13 1 3 5.9999999999999998e-02 2.5231486550340549e+00 5.5635854588776832e+00 1.7658458635666783e+01 0 0 0
3241 181 1 -1.7999999999999999e-01 5.1452847952184424e+00 5.2910130996072331e+00 1.2813533717590500e+01 0 0 0
152 9 3 5.9999999999999998e-02 7.7149357453040892e+00 8.2794499524108112e+00 1.6682307890697238e+01 1 0 0
748 42 3 5.9999999999999998e-02 8.3689361819917121e+00 4.7175808893855892e-01 1.4374817111257364e+01 0 0 0
16 1 3 5.9999999999999998e-02 1.2071258155940208e+00 3.7013002062326628e+00 1.4860815472727833e+01 0 0 0
990 55 5 4.1799999999999998e-01 1.1054761639384582e+01 2.3535171738560119e+00 1.6763656781936056e+01 0 1 0
2138 119 3 5.9999999999999998e-02 2.1645336928266903e+00 4.1655822326114955e-01 1.5303235490761953e+01 1 1 0
3251 181 3 5.9999999999999998e-02 6.4346191662611787e+00 6.9383229101982824e+00 1.2191445744890620e+01 0 0 0
2119 118 3 5.9999999999999998e-02 6.4559978667345987e+00 3.2659688123586132e+00 1.8057377193132119e+01 0 0 0
159 9 3 5.9999999999999998e-02 1.1551410902406044e+01 5.9125586799192087e+00 1.4883082859286940e+01 1 0 0
2109 118 2 -1.2000000000000000e-01 5.5319812119293648e+00 3.6672233015051794e+00 1.8442533641117823e+01 0 0 0
145 9 1 -1.7999999999999999e-01 8.3723850398060513e+00 9.1205469111155093e+00 1.6638373041343865e+01 1 0 0
1073 60 3 5.9999999999999998e-02 1.0381426823637508e+01 3.3651182686038270e+00 1.0114059866259915e+01 1 0 0
158 9 3 5.9999999999999998e-02 1.2246548187934771e+01 6.7255166259074040e+00 1.7316039918297982e+01 1 0 0
1080 60 5 4.1799999999999998e-01 1.0256262873521871e+01 4.6006745390878869e+00 1.2991618464226898e+01 1 0 0
753 42 3 5.9999999999999998e-02 8.6955001053728100e+00 1.8378227103672358e+00 1.5977086367029392e+01 0 0 0
2639 147 3 5.9999999999999998e-02 4.1472571710701480e+00 9.3104191224379722e+00 1.6431775483024975e+01 0 0 0
146 9 2 -1.2000000000000000e-01 9.8344527966180362e+00 8.8088405178860185e+00 1.6201486082671728e+01 1 0 0
1074 60 3 5.9999999999999998e-02 1.1798202387325874e+01 2.9979194230004764e+00 1.2155671967505187e+01 1 0 0
147 9 2 -1.2000000000000000e-01 1.0466502302385122e+01 7.5981329473038279e+00 1.6794114430504742e+01 1 0 0
157 9 3 5.9999999999999998e-02 9.9777857742224132e+00 6.7117549118373470e+00 1.6608812916214891e+01 1 0 0
1077 60 3 5.9999999999999998e-02 1.2043823747503005e+01 6.3496651229373633e+00 1.0375281912963473e+01 1 0 0
742 42 6 2.0499999999999999e-01 8.6814112994799206e+00 3.2242595783451713e+00 1.4335462009939006e+01 0 0 0
740 42 2 -1.2000000000000000e-01 8.5034606593713473e+00 8.7198819983874165e-01 1.3313259053427791e+01 0 0 0
2115 118 3 5.9999999999999998e-02 5.7908938491510709e+00 6.3366811023717151e+00 1.7197312714375240e+01 0 0 0
755 42 3 5.9999999999999998e-02 7.3293976252714534e+00 2.7028506931716718e+00 1.5916906830872254e+01 0 0 0
754 42 3 5.9999999999999998e-02 8.7805830613025311e+00 3.3779043217214775e+00 1.6616052675435341e+01 0 0 0
1065 60 2 -1.2000000000000000e-01 1.2150938677998113e+01 3.7181857339396225e+00 1.1423287936661463e+01 1 0 0
743 42 1 -1.7999999999999999e-01 8.3514472782896991e+00 2.8286767499501773e+00 1.5763221410377822e+01 0 0 0
15 1 3 5.9999999999999998e-02 2.5815907298318446e+00 4.6464730136455454e+00 1.5200179838020057e+01 0 0 0
1076 60 3 5.9999999999999998e-02 1.2357670059151115e+01 5.0826593012514181e+00 1.3071889257847321e+01 1 0 0
752 42 3 5.9999999999999998e-02 8.1848277667257321e+00 4.2021629116059227e+00 1.4183802446650775e+01 0 0 0
756 42 5 4.1799999999999998e-01 1.0567802164959863e+01 2.8698280870921988e+00 1.4669882990782419e+01 0 0 0
1069 60 3 5.9999999999999998e-02 1.1793053356915143e+01 1.2378877155869732e+00 1.0109395997844327e+01 1 0 0
983 55 3 5.9999999999999998e-02 1.2314062437447340e+01 3.8684882373685109e-01 1.3497693684147407e+01 0 1 0
741 42 2 -1.2000000000000000e-01 8.1784692965259609e+00 2.3648843165993285e+00 1.3156835168271449e+01 0 0 0
160 9 3 5.9999999999999998e-02 1.1996744188589680e+01 7.5425869435724344e+00 1.4320103825522963e+01 1 0 0
3258 181 5 4.1799999999999998e-01 9.4047198628253081e+00 6.6181358656412792e+00 1.1870849215828031e+01 0 0 0
749 42 3 5.9999999999999998e-02 9.5031774434425120e+00 6.8492788431787965e-01 1.2988471390582612e+01 0 0 0
3252 181 3 5.9999999999999998e-02 7.6494355698367471e+00 4.7970978027501960e+00 1.1717203014269517e+01 0 0 0
12 1 3 5.9999999999999998e-02 1.2411401373977040e+00 6.6315213375014483e+00 1.7340498346050929e+01 0 0 0
2107 118 1 -1.7999999999999999e-01 6.4732623392025168e+00 6.1361121199469393e+00 1.7955654796585385e+01 0 0 0
2142 119 5 4.1799999999999998e-01 2.6320100140517000e+00 2.3118296153713485e+00 1.6700852840229910e+01 1 1 0
3 1 2 -1.2000000000000000e-01 1.4551878124752007e+00 5.6473805938278510e+00 1.7742075941381422e+01 0 0 0
751 42 3 5.9999999999999998e-02 7.1401869242055458e+00 2.5931392052497455e+00 1.3124964605098397e+01 0 0 0
5 1 1 -1.7999999999999999e-01 1.5166019153793400e+00 4.5816047083238391e+00 1.5445111604954860e+01 0 0 0
4 1 6 2.0499999999999999e-01 1.0436528618227863e+00 4.4818325846762219e+00 1.6921410037812368e+01 0 0 0
156 9 3 5.9999999999999998e-02 1.0294896138964951e+01 7.8911500069784148e+00 1.7850285379379393e+01 1 0 0
2135 119 3 5.9999999999999998e-02 6.2219321011920465e+00 6.4947379935005867e-01 1.5608522423312184e+01 1 1 0
3242 181 2 -1.2000000000000000e-01 5.9642649670505472e+00 6.0881066896990523e+00 1.1741523141813156e+01 0 0 0
18 1 5 4.1799999999999998e-01 7.7620829295598315e-01 3.0699136505335520e+00 1.8211218077363892e+01 0 0 0
3254 181 3 5.9999999999999998e-02 8.9418599644082803e+00 5.6907362503428942e+00 9.9723868953505566e+00 0 0 0
3246 181 4 -6.8300000000000005e-01 8.7709126776563391e+00 7.1166778172560825e+00 1.1496078802679969e+01 0 0 0
745 42 3 5.9999999999999998e-02 7.3786415249651149e+00 6.6339220878666472e-01 1.1423591216652266e+01 0 0 0
3249 181 3 5.9999999999999998e-02 5.7029179936306509e+00 4.8335803447462133e+00 1.3540296276602620e+01 0 0 0
2114 118 3 5.9999999999999998e-02 6.7955131627377785e+00 7.0348359761680461e+00 1.8468487324684119e+01 0 0 0
3243 181 2 -1.2000000000000000e-01 7.1080931488873365e+00 5.4061942672897745e+00 1.1031889430491585e+01 0 0 0
744 42 4 -6.8300000000000005e-01 1.0076102548604318e+01 3.5188738310321126e+00 1.4128168625889719e+01 0 0 0
1068 60 4 -6.8300000000000005e-01 1.0542953191996228e+01 5.3246795242007794e+00 1.2315467685410988e+01 1 0 0
3244 181 6 2.0499999999999999e-01 8.1727337727775389e+00 6.3138950127802431e+00 1.0469883272627108e+01 0 0 0
2130 119 4 -6.8300000000000005e-01 3.2839422694566913e+00 1.9467150874110382e+00 1.6115481220597772e+01 1 1 0
1063 60 1 -1.7999999999999999e-01 1.2029890644406823e+01 2.1089284179343077e+00 9.4631222317826911e+00 1 0 0
2136 119 3 5.9999999999999998e-02 4.3553818231239596e+00 8.3786259943074329e-02 1.4188115998675841e+01 1 1 0
2134 119 3 5.9999999999999998e-02 5.5484728717469451e+00 4.0758404459808162e-02 1.6984710245546719e+01 1 1 0
1072 60 3 5.9999999999999998e-02 1.1678749701926064e+01 4.2995683899687114e+00 9.3744466640227344e+00 1 0 0
2967 165 3 5.9999999999999998e-02 2.3206676818752867e+00 6.3618520692941596e+00 2.3337136850640331e+01 0 0 0
2326 130 6 2.0499999999999999e-01 8.6607877553164254e+00 2.5612088379311011e+00 2.4703855176791844e+01 0 0 0
3157 176 3 5.9999999999999998e-02 3.4198136426962527e+00 1.3918087097026490e+00 2.7539675541527551e+01 1 0 0
2122 118 3 5.9999999999999998e-02 6.3985000788795050e+00 2.9871894939273962e+00 2.1361607642954702e+01 0 0 0
2110 118 6 2.0499999999999999e-01 5.1413940042080890e+00 2.5817321889662490e+00 1.9476319256440497e+01 0 0 0
2120 118 3 5.9999999999999998e-02 4.9957440008955762e+00 1.6098174005124928e+00 1.8917901399356463e+01 0 0 0
2962 165 3 5.9999999999999998e-02 6.1734998945647197e+00 5.5290059196553392e+00 2.2880364981888565e+01 0 0 0
2328 130 4 -6.8300000000000005e-01 9.5623578397534299e+00 1.6332625870660202e+00 2.5295778412239219e+01 0 0 0
605 34 3 5.9999999999999998e-02 1.1633647217553584e+01 6.1138302777503446e+00 2.2538157966256286e+01 0 0 0
1193 67 1 -1.7999999999999999e-01 4.7646360588541015e+00 2.1936584793561007e+00 2.4035970195763245e+01 1 0 0
2332 130 3 5.9999999999999998e-02 1.0453811675512254e+01 4.6941757530614572e+00 2.4664316039018260e+01 0 0 0
2957 165 1 -1.7999999999999999e-01 3.4304009960835153e+00 6.2123131116055292e+00 2.3361671922590308e+01 0 0 0
2009 112 3 5.9999999999999998e-02 8.6951398911216931e+00 3.7275162345954610e-01 2.0612843890550629e+01 0 0 0
612 34 5 4.1799999999999998e-01 1.1977857003085814e+01 2.7840568816753932e+00 1.9698683398949914e+01 0 0 0
1194 67 4 -6.8300000000000005e-01 3.0376749675720460e+00 1.5811732825977345e+00 2.2654992899556312e+01 1 0 0
2004 112 4 -6.8300000000000005e-01 1.1234009843979027e+01 1.1138971386982626e+00 2.1384502689335601e+01 0 0 0
2117 118 3 5.9999999999999998e-02 4.7836492032449538e+00 5.5815971873524735e+00 1.9046503974789125e+01 0 0 0
2324 130 2 -1.2000000000000000e-01 9.8996107229363055e+00 4.6366380681690709e+00 2.5623291935852876e+01 0 0 0
2969 165 3 5.9999999999999998e-02 3.9353569343374417e+00 5.7932008196670637e+00 2.4254601932670525e+01 0 0 0
2965 165 3 5.9999999999999998e-02 5.2559654596000360e+00 6.8860441603615543e+00 2.1135618477315024e+01 0 0 0
2 1 2 -1.2000000000000000e-01 9.3284203537750265e-01 5.6942526839937688e+00 1.9192906993566289e+01 0 0 0
2337 130 3 5.9999999999999998e-02 8.9667295819254154e+00 1.5363366717303191e+00 2.2818358321454028e+01 0 0 0
2963 165 3 5.9999999999999998e-02 6.6215338891135218e+00 6.7426902962142021e+00 2.3839051513254663e+01 0 0 0
2338 130 3 5.9999999999999998e-02 8.3117535315591766e+00 3.3418569336975965e+00 2.2711411129781816e+01 0 0 0
604 34 3 5.9999999999999998e-02 1.2144097133730144e+01 4.5486832866652129e+00 2.3057514099759690e+01 0 0 0
2956 165 6 2.0499999999999999e-01 4.1259490147012734e+00 7.5044050072916706e+00 2.2885858941890277e+01 0 0 0
3404 190 2 -1.2000000000000000e-01 6.3978489596913879e-01 9.2327841778120270e+00 2.6398196112405582e+01 1 0 0
2003 112 1 -1.7999999999999999e-01 1.1295154969532843e+01 9.7232666360355074e-02 1.9245363980243454e+01 0 0 0
2711 151 3 5.9999999999999998e-02 7.9927645533333340e+00 9.0735157841196710e+00 2.6991082833027825e+01 0 0 0
3410 190 3 5.9999999999999998e-02 1.9806889757721319e-01 7.2810578436104052e+00 2.7534257532645380e+01 1 0 0
2310 129 4 -6.8300000000000005e-01 1.1786620118888617e+01 3.0551506890446301e-01 2.4130398969975030e+01 0 0 0
2329 130 3 5.9999999999999998e-02 1.0490609800109910e+01 6.5921707801316041e+00 2.6303212323476249e+01 0 0 0
1199 67 3 5.9999999999999998e-02 9.6379397008627121e-01 4.1656572698240693e+00 2.3533312422472626e+01 1 0 0
2955 165 2 -1.2000000000000000e-01 5.4683371192769137e+00 7.3767278663979052e+00 2.2089251514994309e+01 0 0 0
3411 190 3 5.9999999999999998e-02 1.9191016068998823e+00 7.7366086786585244e+00 2.7239981592073928e+01 1 0 0
2968 165 3 5.9999999999999998e-02 3.5759556551715823e+00 5.5857958309692410e+00 2.2523965501858736e+01 0 0 0
2718 151 5 4.1799999999999998e-01 4.7522733469420100e+00 7.4927509206343634e+00 2.6331069990730171e+01 0 0 0
1200 67 3 5.9999999999999998e-02 2.6783719530032633e+00 3.4834716495068641e+00 2.5314547934539334e+01 1 0 0
2335 130 3 5.9999999999999998e-02 7.8904238226813730e+00 4.5910821440766352e+00 2.4820240591210155e+01 0 0 0
2958 165 4 -6.8300000000000005e-01 4.2232715166137353e+00 8.2632655124789078e+00 2.4079874654673489e+01 0 0 0
1198 67 3 5.9999999999999998e-02 5.0994984415893541e-01 2.5120042985485673e+00 2.3396453323235168e+01 1 0 0
2966 165 3 5.9999999999999998e-02 3.4965962027933801e+00 8.1238123822380963e+00 2.2283444551934661e+01 0 0 0
2333 130 3 5.9999999999999998e-02 1.0540989951843752e+01 4.0736297085996851e+00 2.6299375165475588e+01 0 0 0
2124 118 5 4.1799999999999998e-01 3.2781429430385072e+00 3.2278210958343694e+00 1.9515763210506829e+01 0 0 0
2123 118 3 5.9999999999999998e-02 5.9891275369162198e+00 1.3025659948887176e+00 2.1000912337177933e+01 0 0 0
2796 156 4 -6.8300000000000005e-01 8.7681141522946078e+00 5.4082610855377078e-01 2.7728188658157041e+01 0 1 0
2340 130 5 4.1799999999999998e-01 9.1711033662657133e+00 1.3606324138182937e+00 2.6180129682738393e+01 0 0 0
599 34 1 -1.7999999999999999e-01 1.0748736837337622e+01 5.6726817820837301e+00 1.9653690926726576e+01 0 0 0
1192 67 6 2.0499999999999999e-01 3.4090789127550796e+00 2.6101921217025046e+00 2.3544446581777823e+01 1 0 0
2717 151 3 5.9999999999999998e-02 5.1902537432951972e+00 5.1877185796876084e+00 2.7794880919825854e+01 0 0 0
2803 156 3 5.9999999999999998e-02 6.1888777131640529e+00 2.6464319881426207e-01 2.7878592367291077e+01 0 1 0
7 1 3 5.9999999999999998e-02 1.1386645494036873e+00 6.8814571160437810e+00 2.0978471366735107e+01 0 0 0
2327 130 1 -1.7999999999999999e-01 9.0797492311296821e+00 2.6402183798261856e+00 2.3205742008570127e+01 0 0 0
2953 165 1 -1.7999999999999999e-01 7.7924727835430714e+00 6.3983688530108864e+00 2.2028823899162202e+01 0 0 0
2339 130 3 5.9999999999999998e-02 1.0109288393857796e+01 3.0019606634959519e+00 2.3051757432775663e+01 0 0 0
2013 112 3 5.9999999999999998e-02 1.0531699628080689e+01 8.4685965456240153e-01 1.9008335012880831e+01 0 0 0
2714 151 3 5.9999999999999998e-02 6.7092865253014811e+00 6.7675395697189957e+00 2.6888517193378277e+01 0 0 0
2121 118 3 5.9999999999999998e-02 7.2733733676772445e+00 2.0665409375872676e+00 2.0117613926354313e+01 0 0 0
2954 165 2 -1.2000000000000000e-01 6.5552745282820686e+00 6.4576962181853181e+00 2.2821305744244089e+01 0 0 0
2334 130 3 5.9999999999999998e-02 7.9136140789187817e+00 3.8233304795593170e+00 2.6258683137316119e+01 0 0 0
2325 130 2 -1.2000000000000000e-01 8.5039505148418204e+00 3.9227070695599036e+00 2.5369456813903085e+01 0 0 0
2706 151 4 -6.8300000000000005e-01 5.0376056430660725e+00 7.9636249990354671e+00 2.7123022116740358e+01 0 0 0
2116 118 3 5.9999999999999998e-02 6.2570857257644237e+00 5.0539425126706092e+00 1.9878585886854747e+01 0 0 0
1191 67 2 -1.2000000000000000e-01 2.3199670306470055e+00 2.6946830258925694e+00 2.4625999683893173e+01 1 0 0
1201 67 3 5.9999999999999998e-02 2.2108318686046946e+00 1.7831456504021399e+00 2.5184301555409061e+01 1 0 0
2331 130 3 5.9999999999999998e-02 8.8690132488384492e+00 6.5174870624252144e+00 2.5787736067404794e+01 0 0 0
2959 165 3 5.9999999999999998e-02 8.2771217069252874e+00 7.4151970343344153e+00 2.1927063000057089e+01 0 0 0
2961 165 3 5.9999999999999998e-02 8.5228605773775268e+00 5.7667534342722293e+00 2.2524550572032975e+01 0 0 0
1202 67 3 5.9999999999999998e-02 3.5097689939913930e+00 3.5593591089397436e+00 2.2987102020332788e+01 1 0 0
3403 190 1 -1.7999999999999999e-01 9.2278416465294888e-01 7.8457029091136956e+00 2.6837784912542862e+01 1 0 0
2323 130 1 -1.7999999999999999e-01 9.6335790831489732e+00 5.9158306863394037e+00 2.6281063016179036e+01 0 0 0
2108 118 2 -1.2000000000000000e-01 5.7818456936032812e+00 5.1206007686545325e+00 1.8878743344303199e+01 0 0 0
1889 105 3 5.9999999999999998e-02 4.0149536989416612e-01 6.9678893598036495e-01 2.0462779202888154e+01 0 0 0
1203 67 3 5.9999999999999998e-02 4.7038866800367698e+00 1.3188169055682468e+00 2.4632108361168154e+01 1 0 0
1190 67 2 -1.2000000000000000e-01 8.9145141255244487e-01 3.2273986286896754e+00 2.4077966350546980e+01 1 0 0
2111 118 1 -1.7999999999999999e-01 6.2343294055817067e+00 2.2754856276571394e+00 2.0537136692252318e+01 0 0 0
1206 67 5 4.1799999999999998e-01 3.1354074081753827e+00 1.9796222196415922e+00 2.1809638783694769e+01 1 0 0
611 34 3 5.9999999999999998e-02 1.0256530723291936e+01 6.2723607997378261e+00 2.0483118512347051e+01 0 0 0
2336 130 3 5.9999999999999998e-02 7.7195834353958013e+00 1.9803915579976810e+00 2.4755075726964872e+01 0 0 0
1341 75 3 5.9999999999999998e-02 1.0439084206874199e+01 9.0044635688203947e+00 2.3162964686306463e+01 0 0 0
2970 165 5 4.1799999999999998e-01 4.2698507490243527e+00 9.2795169899705510e+00 2.3968598455417389e+01 0 0 0
2016 112 5 4.1799999999999998e-01 1.1202513422880275e+01 9.9684467778367802e-01 2.2363743265211578e+01 0 0 0
2704 151 6 2.0499999999999999e-01 6.0994742560825284e+00 7.1672014826995856e+00 2.7719492110955976e+01 0 0 0
3161 176 3 5.9999999999999998e-02 1.1748080105177865e+00 6.1040105341545070e-01 2.7068588115313524e+01 1 0 0
2330 130 3 5.9999999999999998e-02 9.5104297821786474e+00 5.7415272820865679e+00 2.7346525020799508e+01 0 0 0
598 34 6 2.0499999999999999e-01 1.1518871973227151e+01 4.4887541968647451e+00 2.0193568832523979e+01 0 0 0
1197 67 3 5.9999999999999998e-02 3.3040371492272225e-01 4.6572653680826370e+00 2.5721708419243601e+01 1 0 0
2960 165 3 5.9999999999999998e-02 7.5838587869924785e+00 5.9058716167967935e+00 2.1059264168895087e+01 0 0 0
609 34 3 5.9999999999999998e-02 1.1368702594779965e+01 6.3491161776299547e+00 1.9150545316171847e+01 0 0 0
1205 67 3 5.9999999999999998e-02 5.1296754676360594e+00 3.0328262682702696e+00 2.4612059715409085e+01 1 0 0
2112 118 4 -6.8300000000000005e-01 3.9337447910218963e+00 2.9422631363940317e+00 2.0167115084219244e+01 0 0 0
608 34 3 5.9999999999999998e-02 1.0814236262290502e+01 3.9476999127131882e+00 2.0807025381230581e+01 0 0 0
1204 67 3 5.9999999999999998e-02 5.4474812119439253e+00 1.9329083675594958e+00 2.3205366076380145e+01 1 0 0
2964 165 3 5.9999999999999998e-02 5.8129656709883006e+00 8.4239135760827732e+00 2.1965797908509309e+01 0 0 0
1 1 1 -1.7999999999999999e-01 1.5895843017374234e+00 6.8862563867468074e+00 1.9984214577990265e+01 0 0 0
1886 105 3 5.9999999999999998e-02 2.1011808549800745e-01 3.1905138573269176e+00 2.0999630976616501e+01 0 0 0
8 1 3 5.9999999999999998e-02 1.3263317474618082e+00 7.8243594106399810e+00 1.9510313437410698e+01 0 0 0
10 1 3 5.9999999999999998e-02 1.1398437808402748e+00 4.7934024322521189e+00 1.9757673787580508e+01 0 0 0
2702 151 2 -1.2000000000000000e-01 7.6036927655776188e+00 9.3142064786351018e+00 2.7956431257272275e+01 0 0 0
610 34 3 5.9999999999999998e-02 9.9874613670268424e+00 5.2876769112046951e+00 1.8873712514284442e+01 0 0 0
9 1 3 5.9999999999999998e-02 2.6619560282272521e+00 6.7717658750754204e+00 2.0137132915988101e+01 0 0 0
2322 129 5 4.1799999999999998e-01 1.1019672645690409e+01 5.0944384680858457e-01 2.4695924589901303e+01 0 0 0
596 34 2 -1.2000000000000000e-01 1.2435820240266860e+01 5.3983316557008161e+00 2.2482747367787503e+01 0 0 0
3409 190 3 5.9999999999999998e-02 1.0160980463976830e+00 7.3155687388856565e+00 2.5913436559686563e+01 1 0 0
600 34 4 -6.8300000000000005e-01 1.1988150553227237e+01 3.5979767347859952e+00 1.9229496372787754e+01 0 0 0
2014 112 3 5.9999999999999998e-02 1.2257788183744871e+01 5.7089603051104876e-01 1.8964581372366307e+01 0 0 0
584 33 3 5.9999999999999998e-02 1.1811198538506924e+00 3.1256203477585465e+00 2.8013414220308746e+01 0 0 -1
1189 67 1 -1.7999999999999999e-01 8.7952480069830585e-03 3.6824581517413750e+00 2.5210564914593125e+01 1 0 0
1344 75 3 5.9999999999999998e-02 1.0376825605105934e+01 9.2958011635101041e+00 2.1005511740247830e+01 0 0 0
1340 75 3 5.9999999999999998e-02 1.1819960589986922e+01 9.2259133526101209e+00 2.4127557623191194e+01 0 0 0
1238 69 3 5.9999999999999998e-02 4.6644886352171122e-01 5.1008647026198837e+00 3.2783778015636585e+01 1 1 -1
1056 59 3 5.9999999999999998e-02 1.2217700101906280e+01 7.1251529097948909e+00 3.0001218877524149e+01 0 0 -1
3097 173 1 -1.7999999999999999e-01 1.1963277471715463e+01 6.1304597235033642e-01 3.4000834411889208e+01 0 1 0
1240 69 3 5.9999999999999998e-02 7.9752529767027369e-01 6.5095306398523345e+00 3.4765756730012789e+01 1 1 -1
1227 69 2 -1.2000000000000000e-01 4.6447758020845456e-02 7.1300903181830861e+00 3.1865492668020774e+01 1 1 -1
1053 59 3 5.9999999999999998e-02 1.0502512783219082e+01 7.4229526572675359e+00 3.2197539286229400e+01 0 0 -1
1372 77 6 2.0499999999999999e-01 1.1954243214212919e+01 1.5045640150395274e+00 3.0064827172426842e+01 0 0 0
2703 151 2 -1.2000000000000000e-01 6.9685365258773402e+00 8.0216393253415177e+00 2.8559868385652756e+01 0 0 0
1237 69 3 5.9999999999999998e-02 1.1292774804035655e+00 7.2943283755797550e+00 3.1723506192597362e+01 1 1 -1
2705 151 1 -1.7999999999999999e-01 5.5368485995115160e+00 5.9667058786144898e+00 2.8422422793403179e+01 0 0 0
1045 59 1 -1.7999999999999999e-01 1.0242300190915175e+01 8.2254692242062379e+00 3.1572551727643621e+01 0 0 -1
587 33 3 5.9999999999999998e-02 2.0183472240482864e-01 4.0981005865723095e+00 3.0758680091797274e+01 0 0 -1
2712 151 3 5.9999999999999998e-02 7.7512768886125425e+00 7.3774886955989594e+00 2.8928110302626759e+01 0 0 0
2791 156 1 -1.7999999999999999e-01 7.5965394585603825e+00 1.7199121957396940e-01 3.1057859546002870e+01 0 1 0
1046 59 2 -1.2000000000000000e-01 1.1430668258523012e+01 8.8815888920532959e+00 3.0871746834562032e+01 0 0 -1
1383 77 3 5.9999999999999998e-02 1.1080723351596300e+01 3.2317812913580668e+00 3.0991562929515617e+01 0 0 0
586 33 3 5.9999999999999998e-02 1.3788759999753246e+00 2.6616286656285237e+00 3.0565257946924028e+01 0 0 -1
1051 59 3 5.9999999999999998e-02 9.5402430284237045e+00 7.8891995773025423e+00 3.0749756149563947e+01 0 0 -1
2792 156 2 -1.2000000000000000e-01 6.6930954706054164e+00 6.0026480894207268e-01 2.9946399447263737e+01 0 1 0
3151 176 1 -1.7999999999999999e-01 3.0659433638410687e+00 6.3374948145812360e-01 2.8296712196245441e+01 1 0 0
3103 173 3 5.9999999999999998e-02 1.2123185889839895e+01 6.6603902653963087e-01 3.5140288486546481e+01 0 1 0
2716 151 3 5.9999999999999998e-02 4.7324620621295672e+00 6.1844350204069194e+00 2.9111996597341665e+01 0 0 0
1385 77 3 5.9999999999999998e-02 1.0448596302256774e+01 1.7741990005332815e+00 3.1590798107792004e+01 0 0 0
1373 77 1 -1.7999999999999999e-01 1.0740337974614180e+01 2.2372844170249717e+00 3.0648851706637583e+01 0 0 0
1384 77 3 5.9999999999999998e-02 9.8994042677935195e+00 2.3231232401204855e+00 2.9964904489994950e+01 0 0 0
1055 59 3 5.9999999999999998e-02 1.2285294732928971e+01 8.8885967225888063e+00 3.1534016343086723e+01 0 0 -1
3159 176 3 5.9999999999999998e-02 2.5897799020872458e+00 1.1024452289202189e+00 2.9157621154565302e+01 1 0 0
2799 156 3 5.9999999999999998e-02 7.6371379341042616e+00 1.0066130601103336e+00 3.1837661139253523e+01 0 1 0
2713 151 3 5.9999999999999998e-02 6.4495252413083453e+00 8.3529447568287623e+00 2.9440681963038838e+01 0 0 0
1052 59 3 5.9999999999999998e-02 9.8062822972146098e+00 8.9681668215972650e+00 3.2163070079070167e+01 0 0 -1
1374 77 4 -6.8300000000000005e-01 1.1542650922918366e+01 3.3897757653397065e-01 2.9399406108956082e+01 0 0 0
585 33 3 5.9999999999999998e-02 1.3140578527195903e+00 4.6754097367667082e+00 2.8861915871937235e+01 0 0 -1
578 33 2 -1.2000000000000000e-01 5.0659061694070429e-01 3.2007865876751329e+00 3.0126703889109606e+01 0 0 -1
2808 156 5 4.1799999999999998e-01 9.6439320627452592e+00 5.4784476424860529e-01 2.8135700458447154e+01 0 1 0
591 33 3 5.9999999999999998e-02 1.1520662656888152e+00 1.0719112245712370e+00 3.2005569469730638e+01 0 0 -1
1057 59 3 5.9999999999999998e-02 1.0916040746551843e+01 7.7979568419504899e+00 2.9123255218397933e+01 0 0 -1
581 33 1 -1.7999999999999999e-01 2.0866327865136677e-01 6.0268484063453720e-01 3.1749082848222816e+01 0 0 -1
2715 151 3 5.9999999999999998e-02 6.3080428896800749e+00 5.5038126803353249e+00 2.9044435986360210e+01 0 0 0
2801 156 3 5.9999999999999998e-02 6.9617108229099447e+00 1.6487955914719821e+00 2.9622666537242342e+01 0 1 0
1047 59 2 -1.2000000000000000e-01 1.1829887994674145e+01 8.0616070827017303e+00 2.9634314805951387e+01 0 0 -1
577 33 1 -1.7999999999999999e-01 6.6697900829165535e-01 3.7384081800345359e+00 2.8769344022551135e+01 0 0 -1
3104 173 3 5.9999999999999998e-02 1.1563456137659728e+01 1.6571111266963856e+00 3.3679924480868529e+01 0 1 0
2800 156 3 5.9999999999999998e-02 5.6726503653951807e+00 6.4872374239115482e-01 3.0321342049104981e+01 0 1 0
1381 77 3 5.9999999999999998e-02 1.2113811568828279e+01 2.4730446031697930e+00 2.8166000410003729e+01 0 0 0
593 33 3 5.9999999999999998e-02 3.0468565354220722e-01 1.3852344716603682e-02 3.0853189309763550e+01 0 0 -1
2257 126 3 5.9999999999999998e-02 1.1253059210700700e+01 1.3929073107308561e+01 7.4468426151476708e+00 0 0 0
2251 126 1 -1.7999999999999999e-01 1.0850226517482010e+01 1.4632554627599244e+01 8.1967425649220900e+00 0 0 0
2258 126 3 5.9999999999999998e-02 1.0388095394763051e+01 1.5439516394523837e+01 7.7156609606353692e+00 0 0 0
2259 126 3 5.9999999999999998e-02 1.0008719268756337e+01 1.4112672311183285e+01 8.6628168805692489e+00 0 0 0
2252 126 2 -1.2000000000000000e-01 1.1843524119129977e+01 1.4889675910750398e+01 9.3022576211211039e+00 0 0 0
2261 126 3 5.9999999999999998e-02 1.2451948254617864e+01 1.5759010552403328e+01 9.0823916332431462e+00 0 0 0
2434 136 6 2.0499999999999999e-01 3.7954952658273746e+00 1.5017088287806372e+01 1.4979981218428465e+01 0 0 0
2630 147 2 -1.2000000000000000e-01 4.1607634821697044e+00 1.0321244270889132e+01 1.6111944941994278e+01 0 0 0
2443 136 3 5.9999999999999998e-02 2.2582853800442120e+00 1.3331173748136640e+01 1.4855935789457462e+01 0 0 0
2440 136 3 5.9999999999999998e-02 9.6320015664527103e-01 1.5438219557353843e+01 1.4552995756581398e+01 0 0 0
2863 160 1 -1.7999999999999999e-01 6.7016969054590945e+00 1.2899370208191618e+01 1.1384939062854038e+01 0 0 0
2438 136 3 5.9999999999999998e-02 6.1226295625878890e-02 1.3920813929863218e+01 1.6906219650837315e+01 0 0 0
2872 160 3 5.9999999999999998e-02 8.8720597785198070e+00 1.2875502171349154e+01 1.1054979958828913e+01 0 0 0
2879 160 3 5.9999999999999998e-02 1.0765863681523079e+01 1.0088350116127671e+01 1.1057291373264228e+01 0 0 0
2435 136 1 -1.7999999999999999e-01 3.6512434186993050e+00 1.5560446373784389e+01 1.3615343889363935e+01 0 0 0
2865 160 2 -1.2000000000000000e-01 8.4252570269144051e+00 1.1343070339517993e+01 1.2368056283116729e+01 0 0 0
124 7 3 5.9999999999999998e-02 7.1117426751600865e+00 1.5425185440493413e+01 1.5726779373655750e+01 1 0 0
2874 160 3 5.9999999999999998e-02 7.6923834758604936e+00 1.1070308662937382e+01 1.3184962990999688e+01 0 0 0
2869 160 3 5.9999999999999998e-02 6.1769436496665326e+00 1.3156336042557363e+01 1.2292595456066776e+01 0 0 0
2741 153 1 -1.7999999999999999e-01 5.5953111762545538e+00 1.8495112635227379e+01 1.7581118323115465e+01 0 0 0
2635 147 3 5.9999999999999998e-02 5.1019703420352389e+00 1.1231539364658007e+01 1.4314287708136236e+01 0 0 0
2436 136 4 -6.8300000000000005e-01 4.0505512688003211e+00 1.6085073506510756e+01 1.5904158871249564e+01 0 0 0