
variable        infile index Coctane.data   # The name of the (edited) data file

#>>>>>> Simulation settings <<<<<<<

units		 real		#angstroms = length -
atom_style	 full		#How the atoms are defined in the input data file
boundary        p p p           #periodic box in x, y and z
pair_style	 lj/cut/coul/long 14.0    #'lj/cut/coul/long 12.0' for your ethanol simulation
pair_modify     tail yes            #Tail corrections
pair_modify     mix arithmetic      #Lorentz-Berthelot pair interactions between dissimilar atom

# The settings below are additional settings you must add for your ethanol simulation as already detailed in your example NPT LAMMPS script in the tutorial
# For your ethanol homework, change/edit the pair_style line as advised above and uncomment the extra settings below and you should be good to go for this section.

special_bonds   lj/coul 0.0 0.0 0.5
kspace_style    ewald 0.0001
bond_style      harmonic
angle_style     harmonic
dihedral_style  opls


# >>> Using the variable command in LAMMPS to define inputs/settings for the simulation <<<<<<

variable   simulationTemp  index 310     #Simulation temperature
variable   simulationPress equal 0.987	#Simulation pressure

# Output files frequencies
variable        dumpfreq   index 1000          #Output frequency of dump information to dump
variable        thermofreq index 1000          #Output frequency of property information to log
variable        printfreq  index 1000          #Output frequency of information to be printed
variable        restartfreq index 1000000      #Output frequency of restart files


# Simulation run times (equilibration and production)
variable        NVT_equib  index 100000       # Equilibration run length (in timesteps)
variable        NVT_prod   index 30000       # Simulation run length  (in timesteps)


# Defining properties to output
# The first expression after the 'variable' command is a user defined name for the variable, it can be anything
# The expression after the 'equal' keyword are LAMMPS special/reserved terms for those property

variable    step        equal step
variable    density     equal density
variable    temp        equal temp
variable    press       equal press
variable    ke          equal ke
variable    pe          equal pe
variable    etotal      equal etotal
variable    enthalpy    equal enthalpy


# >>>>>>>>>>> Reading data, Neighbor list settings, energy minimization, assigning initial velocities & specifying thermodynamic property output style to log files <<<<<<<<<

read_data	${infile}
read_data	Coctane.data
  orthogonal box = (0 0 0) to (40 40 40)
  3 by 4 by 4 MPI processor grid
  reading atoms ...
  6400 atoms
  scanning bonds ...
  1 = max bonds/atom
  scanning angles ...
  6 = max angles/atom
  scanning dihedrals ...
  11 = max dihedrals/atom
  reading bonds ...
  6200 bonds
  reading angles ...
  12000 angles
  reading dihedrals ...
  16200 dihedrals
  4 = max # of 1-2 neighbors
  6 = max # of 1-3 neighbors
  12 = max # of 1-4 neighbors
  16 = max # of special neighbors
  special bonds CPU = 0.845165 secs
  read_data CPU = 1.08948 secs
neighbor        1.0 bin
neigh_modify    delay 0 every 1 check yes page 1000000 one 20000
timestep        1.0

minimize        1e-4 1e-6 10000 100000        #Energy minimize before creating velocities
Ewald initialization ...
  using 12-bit tables for long-range coulomb (src/kspace.cpp:332)
  G vector (1/distance) = 0.115546
  estimated absolute RMS force accuracy = 0.0338045
  estimated relative force accuracy = 0.000101801
  KSpace vectors: actual max1d max3d = 61 3 171
                  kxmax kymax kzmax  = 3 3 3
Neighbor list info ...
  update every 1 steps, delay 0 steps, check yes
  max neighbors/atom: 20000, page size: 1000000
  master list distance cutoff = 15
  ghost atom cutoff = 15
  binsize = 7.5, bins = 6 6 6
  1 neighbor lists, perpetual/occasional/extra = 1 0 0
  (1) pair lj/cut/coul/long, perpetual
      attributes: half, newton on
      pair build: half/bin/newton
      stencil: half/bin/3d/newton
      bin: standard
Per MPI rank memory allocation (min/avg/max) = 22.48 | 22.52 | 22.56 Mbytes
Step Temp E_pair E_mol TotEng Press 
       0            0 1.1670777e+16    1625.4087 1.1670777e+16 5.0015419e+16 
     416            0   -2233.0457    1037.5603   -1195.4854   -1598.6086 
Loop time of 15.3497 on 48 procs for 416 steps with 6400 atoms

41.6% CPU use with 48 MPI tasks x 1 OpenMP threads

Minimization stats:
  Stopping criterion = linesearch alpha is zero
  Energy initial, next-to-last, final = 
     1.16707774016e+16     -1195.48539676     -1195.48539676
  Force two-norm initial, final = 1.6588e+18 19.9906
  Force max component initial, final = 1.01988e+18 2.65374
  Final line search alpha, max atom move = 1.70198e-11 4.51661e-11
  Iterations, force evaluations = 416 827

MPI task timing breakdown:
Section |  min time  |  avg time  |  max time  |%varavg| %total
---------------------------------------------------------------
Pair    | 1.7682     | 2.7565     | 3.9121     |  27.1 | 17.96
Bond    | 0.062675   | 0.088797   | 0.11657    |   3.8 |  0.58
Kspace  | 2.1624     | 3.4403     | 4.5982     |  38.3 | 22.41
Neigh   | 0.21669    | 0.25975    | 0.29111    |   4.9 |  1.69
Comm    | 2.4142     | 3.4935     | 5.1324     |  38.0 | 22.76
Output  | 0          | 0          | 0          |   0.0 |  0.00
Modify  | 0          | 0          | 0          |   0.0 |  0.00
Other   |            | 5.311      |            |       | 34.60

Nlocal:    133.333 ave 159 max 99 min
Histogram: 1 2 2 4 3 11 12 7 3 3
Nghost:    6738.33 ave 6838 max 6578 min
Histogram: 10 6 0 0 0 0 0 1 22 9
Neighs:    94385.6 ave 117243 max 64455 min
Histogram: 1 2 1 4 7 12 13 3 2 3

Total # of neighbors = 4530508
Ave neighs/atom = 707.892
Ave special neighs/atom = 10.75
Neighbor list builds = 34
Dangerous builds = 0
#velocity	all create ${simulationTemp} 886874 mom yes rot yes dist gaussian

velocity        all create  ${simulationTemp} 317879265 units box
velocity        all create  310 317879265 units box
velocity        all zero linear units box

# The 'velocity' command line above assigns initial velocities to the atoms in our data file, see the LAMMPS 'velocity' command
# The number '886874' is the seed number which helps LAMMPS to consistently assign the same randomized velocities for the same simulation with the same seed number
# Changing that seed number for your simulation of a given system is one easy way to run an 'independent' simulation of the same system as taught in class
# You will need to do this for your homework

thermo_style    custom step vol temp press ke pe etotal enthalpy evdwl ecoul epair ebond eangle edihed eimp emol elong etail lx ly lz xy xz yz density
thermo          ${thermofreq}
thermo          1000

fix npt_density all npt temp ${simulationTemp} ${simulationTemp} 100 iso ${simulationPress} ${simulationPress} 1000
fix npt_density all npt temp 310 ${simulationTemp} 100 iso ${simulationPress} ${simulationPress} 1000
fix npt_density all npt temp 310 310 100 iso ${simulationPress} ${simulationPress} 1000
fix npt_density all npt temp 310 310 100 iso 0.987 ${simulationPress} 1000
fix npt_density all npt temp 310 310 100 iso 0.987 0.987 1000

run 50000
Ewald initialization ...
  using 12-bit tables for long-range coulomb (src/kspace.cpp:332)
  G vector (1/distance) = 0.115546
  estimated absolute RMS force accuracy = 0.0338045
  estimated relative force accuracy = 0.000101801
  KSpace vectors: actual max1d max3d = 61 3 171
                  kxmax kymax kzmax  = 3 3 3
Per MPI rank memory allocation (min/avg/max) = 21.36 | 21.4 | 21.43 Mbytes
Step Volume Temp Press KinEng PotEng TotEng Enthalpy E_vdwl E_coul E_pair E_bond E_angle E_dihed E_impro E_mol E_long E_tail Lx Ly Lz Xy Xz Yz Density 
     416        64000          310    2624.7795    5913.0031   -1195.4854    4717.5177    7167.4195   -2789.2319    1678.1025   -2233.0457    38.621252    315.23584    683.70319            0    1037.5603   -1121.9164   -57.147272           40           40           40            0            0            0   0.73833079 
    1000    66473.655    276.47872    2218.9982    5273.6114    3818.8099    9092.4213    11243.629    -2147.804    1688.3014   -1581.4879    1494.9685    2844.2812    1061.0482            0    5400.2979   -1121.9853   -55.020675    40.508844    40.508844    40.508844            0            0            0    0.7108556 
    2000    68907.493    317.02225   -301.71917    6046.9469    5026.0448    11072.992     10769.78   -1967.8226    1697.9244   -1391.8686    2116.3629    3168.3997    1133.1508            0    6417.9134   -1121.9705   -53.077325    40.997321    40.997321    40.997321            0            0            0   0.68574792 
    3000    68489.512    303.31173   -1096.6695    5785.4296    4967.8793    10753.309    9657.9014   -1973.0571    1702.6585    -1392.381    2065.6991    3143.0841     1151.477            0    6360.2602   -1121.9824   -53.401247    40.914259    40.914259    40.914259            0            0            0   0.68993293 
    4000    67877.054    303.68928    -488.8172    5792.6311    4856.7903    10649.421    10165.533   -1997.1884    1711.8988   -1407.2795     2069.757    3080.0715    1114.2413            0    6264.0698   -1121.9899    -53.88309    40.791937    40.791937    40.791937            0            0            0   0.69615824 
    5000    68180.917    315.06971   -155.40969    6009.7038    4935.0925    10944.796    10790.265   -1977.4233    1707.4162   -1392.0481    2054.2054    3183.8085    1089.1268            0    6327.1407   -1122.0411   -53.642948    40.852717    40.852717    40.852717            0            0            0   0.69305566 
    6000    67342.605    309.86525    570.05927    5910.4329    4840.5892    10751.022     11310.89   -1974.9672    1713.3161   -1383.6894    1954.3441    3140.5248    1129.4097            0    6224.2786   -1122.0382   -54.310721    40.684592    40.684592    40.684592            0            0            0   0.70168314 
    7000     68280.02    308.58196    255.61631    5885.9552    4829.6089    10715.564    10970.105   -1955.5681    1720.2496   -1357.3739    1959.4623    3153.3857    1074.1349            0    6186.9828   -1122.0555    -53.56509    40.872501    40.872501    40.872501            0            0            0   0.69204975 
    8000    67302.009    311.74043    1737.7853    5946.2005     4846.683    10792.883    12498.573     -1985.06    1725.2017   -1381.9155    1988.7457    3168.6361    1071.2166            0    6228.5985   -1122.0572    -54.34348    40.676416    40.676416    40.676416            0            0            0   0.70210639 
    9000      68112.9     304.9844   -321.19821    5817.3346    4817.8519    10635.186    10316.122   -1975.6003    1727.2188   -1370.4384    1934.0882    3179.8985    1074.3036            0    6188.2903   -1122.0569   -53.696516    40.839128    40.839128    40.839128            0            0            0   0.69374774 
   10000    66584.682    308.69372   -238.03655    5888.0868    4613.8849    10501.972    10270.822   -2056.6828    1725.7859   -1452.9533    1987.8548    3057.2898    1021.6935            0    6066.8382   -1122.0564   -54.928931    40.531385    40.531385    40.531385            0            0            0   0.70967029 
   11000    66621.257    315.51014    -91.72198    6018.1046    4638.7278    10656.832    10567.715   -2079.5956    1727.8766   -1473.8011    2012.8503    3084.9768    1014.7018            0    6112.5289   -1122.0821   -54.898775    40.538805    40.538805    40.538805            0            0            0   0.70928067 
   12000    67118.776    313.79503    661.66192    5985.3903    4771.5375    10756.928    11404.601   -2028.4851    1733.1674   -1417.3564    1964.9498    3204.3084    1019.6357            0    6188.8938   -1122.0388   -54.491837    40.639468    40.639468    40.639468            0            0            0   0.70402312 
   13000    66867.651    312.76819   -122.91889    5965.8041    4694.6497    10660.454    10540.584   -2069.5196    1729.5167   -1462.0512    2010.7084    3095.3853    1050.6072            0    6156.7009   -1122.0483   -54.696484     40.58872     40.58872     40.58872            0            0            0   0.70666712 
   14000    66003.426    315.32113   -549.83973    6014.4995    4605.8029    10620.302    10091.031   -2118.1857    1732.2489   -1507.9894    1999.8686    3139.6454    974.27827            0    6113.7923   -1122.0525    -55.41266    40.413099    40.413099    40.413099            0            0            0   0.71591996 
   15000     66642.35    304.41947    213.16269    5806.5589    4641.0541    10447.613    10654.788   -2075.3239    1734.1116   -1463.2693    1968.1443    3096.3098    1039.8693            0    6104.3234    -1122.057   -54.881399    40.543083    40.543083    40.543083            0            0            0   0.70905618 
   16000    66458.867    313.95335    870.56476    5988.4101    4579.9268    10568.337    11412.118   -2087.8742     1738.323   -1471.6128    1962.3467    3078.2093    1010.9835            0    6051.5396   -1122.0617   -55.032918     40.50584     40.50584     40.50584            0            0            0   0.71101378 
   17000    67132.843    309.51703    143.14611    5903.7909    4537.9105    10441.701    10581.851   -2046.9425    1735.9016   -1433.0947    1945.5417    3027.9187    997.54469            0    5971.0051   -1122.0537   -54.480419    40.642306    40.642306    40.642306            0            0            0   0.70387561 
   18000    66688.752     314.0928    975.25453      5991.07    4648.0155    10639.085    11587.605   -2031.7612    1737.2702    -1416.526    2039.3509    3045.5687     979.6218            0    6064.5414    -1122.035   -54.843213     40.55249     40.55249     40.55249            0            0            0   0.70856283 
   19000    67542.945    312.45231   -450.67223     5959.779    4781.3441    10741.123    10297.191   -2018.0465    1733.7791   -1406.3065    2031.3269    3175.7929    980.53071            0    6187.6505    -1122.039   -54.149628    40.724897    40.724897    40.724897            0            0            0   0.69960186 
   20000    65664.399    308.58625   -77.057302    5886.0369    4549.2025    10435.239    10361.446   -2114.9148    1743.8434   -1493.1352    1999.9012    3053.2157    989.22071            0    6042.3377   -1122.0638   -55.698757    40.343787    40.343787    40.343787            0            0            0   0.71961627 
   21000    66677.417    311.37024    507.23791    5939.1393    4740.6024    10679.742    11172.991    -2082.682    1740.2037   -1464.5393    1998.2064    3231.1766    975.75874            0    6205.1417    -1122.061   -54.852536    40.550193    40.550193    40.550193            0            0            0   0.70868328 
   22000    66290.187    307.79458    296.22004    5870.9364    4650.2497    10521.186    10807.564   -2047.3918    1744.6521   -1424.7742    1974.5589    3139.3139    961.15105            0    6075.0239   -1122.0345   -55.172954    40.471542    40.471542    40.471542            0            0            0   0.71282301 
   23000    66615.689    308.63884   -74.175184      5887.04    4795.1951    10682.235    10610.172   -2031.2047     1741.032   -1412.2126     2069.242    3134.4961    1003.6696            0    6207.4077   -1122.0399   -54.903364    40.537675    40.537675    40.537675            0            0            0   0.70933996 
   24000    66445.141    311.13398   -395.10766    5934.6329    4606.8644    10541.497    10158.624   -2090.2639    1743.6481   -1468.6553    1986.4314    3119.5446    969.54365            0    6075.5197   -1122.0395   -55.044287    40.503051    40.503051    40.503051            0            0            0   0.71116066 
   25000    66910.039    307.65137    463.43033    5868.2048    4574.2029    10442.408     10894.63   -2062.7347    1739.9379   -1444.8794    1992.1515    3063.9294    963.00139            0    6019.0823   -1122.0827   -54.661833    40.597295    40.597295    40.597295            0            0            0   0.70621944 
   26000    66158.538    310.85637    877.04844    5929.3377    4624.2096    10553.547    11399.771   -2129.6411    1741.6995   -1509.9747    1976.1777    3163.2496    994.75691            0    6134.1843   -1122.0331   -55.282742    40.444732    40.444732    40.444732            0            0            0   0.71424145 
   27000    66007.456    305.40764   -1530.5613    5825.4076    4556.2636    10381.671    8908.2747   -2146.2176     1738.459   -1529.8123    1970.1282    3177.0758    938.87198            0    6086.0759   -1122.0537   -55.409277    40.413922    40.413922    40.413922            0            0            0   0.71587625 
   28000    66602.974    310.44753    892.48389    5921.5394    4616.0553    10537.595    11404.496   -2071.0571    1742.4343   -1450.6777    1965.2764    3146.4956      954.961            0     6066.733   -1122.0549   -54.913845    40.535096    40.535096    40.535096            0            0            0   0.70947538 
   29000    65723.754    312.70978    856.24055    5964.6899    4572.5874    10537.277    11357.995   -2114.1681    1742.9936   -1493.2048    2023.8351    3097.3408    944.61617            0    6065.7921   -1122.0303   -55.648456    40.355939    40.355939    40.355939            0            0            0    0.7189664 
   30000    66920.916     306.2028    347.48352    5840.5746    4670.5274    10511.102    10850.236   -2078.5295    1746.4103   -1454.1412    2065.5041    3111.3087    947.85584            0    6124.6686    -1122.022   -54.652949    40.599494    40.599494    40.599494            0            0            0   0.70610465 
   31000    66053.238    311.20317   -95.056103    5935.9526    4543.9838    10479.936    10388.367   -2108.5962    1745.4174   -1485.1953     2005.837    3096.8002    926.54185            0    6029.1791   -1122.0165   -55.370872    40.423263    40.423263    40.423263            0            0            0   0.71538007 
   32000     67031.92    308.01935   -465.62601    5875.2237    4497.7159     10372.94    9917.7474   -2075.2629    1749.1896   -1448.0976    1948.5063    3061.9255    935.38168            0    5945.8135   -1122.0243   -54.562444     40.62193     40.62193     40.62193            0            0            0   0.70493536 
   33000    66776.379    306.69028   -224.14361    5849.8728    4605.5649    10455.438    10237.152   -2059.2523    1753.4047   -1427.8956    1999.8023     3088.875    944.78314            0    6033.4605    -1122.048   -54.771245    40.570244    40.570244    40.570244            0            0            0   0.70763302 
   34000    66997.814    312.45715   -260.48544    5959.8713     4442.954    10402.825    10148.306   -2075.9164    1753.9275   -1444.0724    2007.5849    2999.7693    879.67225            0    5887.0265   -1122.0836    -54.59022    40.615039    40.615039    40.615039            0            0            0   0.70529421 
   35000    66207.471    310.59312   -697.30065    5924.3164    4608.0656    10532.382    9859.0907   -2086.7688    1754.9133   -1453.9187    2035.7525    3117.3516     908.8802            0    6061.9843   -1122.0632   -55.241884    40.454701    40.454701    40.454701            0            0            0   0.71371357 
   36000    65902.566    306.83372    88.922638    5852.6088    4500.6164    10353.225    10438.691    -2117.897    1755.1614   -1484.8011    2018.2209    3064.1083    903.08822            0    5985.4175   -1122.0655   -55.497466    40.392504    40.392504    40.392504            0            0            0   0.71701564 
   37000    66148.444     310.6418   -236.22017    5925.2449    4506.9044    10432.149    10204.266    -2107.236    1755.0088   -1474.2809    1980.5015    3078.5569    922.12679            0    5981.1853   -1122.0537   -55.291178    40.442675    40.442675    40.442675            0            0            0   0.71435044 
   38000    65979.545    309.14576   -711.78914    5896.7091    4569.4794    10466.189    9781.2737   -2115.4988    1756.3717   -1481.2096    2032.5177    3112.5196     905.6517            0     6050.689   -1122.0825   -55.432716    40.408225    40.408225    40.408225            0            0            0   0.71617909 
   39000    66364.676    310.14593   -22.574649    5915.7866    4530.7228    10446.509     10424.66    -2093.019    1760.7525   -1454.3498    2019.4634    3063.8022    901.80689            0    5985.0726   -1122.0834   -55.111026    40.486695    40.486695    40.486695            0            0            0   0.71202292 
   40000    66586.666    304.41752    800.52952    5806.5218    4515.0256    10321.547     11098.94   -2104.3947    1761.4397   -1465.0099    1989.5729    3111.5128    878.94981            0    5980.0355   -1122.0549   -54.927294    40.531787    40.531787    40.531787            0            0            0   0.70964914 
   41000    66602.225    309.51628    670.23934    5903.7766    4619.8764    10523.653    11174.673   -2098.2805    1753.4714   -1466.8743    2003.7431    3151.0334    931.97425            0    6086.7507   -1122.0652   -54.914462    40.534944    40.534944    40.534944            0            0            0   0.70948336 
   42000    66504.655    309.53081   -274.83018    5904.0537    4478.0731    10382.127    10115.568   -2091.6968    1757.5399   -1456.2163    1927.3173    3087.7804     919.1917            0    5934.2894   -1122.0594   -54.995029     40.51514     40.51514     40.51514            0            0            0   0.71052425 
   43000      66744.9     311.1765   -1663.5451     5935.444    4530.1256     10465.57    8846.2649   -2136.9805    1762.2205   -1496.8297    1942.6538    3159.7388    924.56274            0    6026.9553   -1122.0698   -54.797076    40.563868    40.563868    40.563868            0            0            0   0.70796675 
   44000    65439.796    311.64958    503.55453    5944.4676    4613.3979    10557.865    11038.444   -2144.8666    1764.2776   -1502.6672    2017.7753    3169.5402    928.74954            0    6116.0651   -1122.0781   -55.889927    40.297736    40.297736    40.297736            0            0            0   0.72208615 
   45000    65599.157     307.3844   -178.73091    5863.1127    4508.5634    10371.676    10200.685   -2169.0814    1763.5141     -1527.62    1965.5596    3168.2509    902.37285            0    6036.1834   -1122.0527   -55.754152    40.330421    40.330421    40.330421            0            0            0   0.72033197 
   46000    65802.274    311.64045   -1010.3241    5944.2933    4501.2874    10445.581    9476.0144   -2132.6439    1765.5886    -1489.075    1953.4957    3172.0561    864.81062            0    5990.3623   -1122.0197   -55.582052    40.372003    40.372003    40.372003            0            0            0   0.71810847 
   47000    65970.116    308.41705   -224.98519    5882.8097    4517.0459    10399.856    10183.396   -2141.7151    1763.2991   -1500.4454    1989.3884    3147.7181    880.38473            0    6017.4913   -1122.0294   -55.440639      40.4063      40.4063      40.4063            0            0            0   0.71628145 
   48000     65217.53    313.50648    721.56546    5979.8863     4494.446    10474.332    11160.635   -2148.4093    1765.8469   -1504.5642    2027.0303    3102.0258     869.9541            0    5999.0101   -1122.0018   -56.080404     40.25206     40.25206     40.25206            0            0            0   0.72454707 
   49000    65895.915    305.79392    613.47681    5832.7755    4304.9149     10137.69    10727.257   -2130.4672    1763.3993   -1489.1117     1925.829    3009.3284    858.86919            0    5794.0266   -1122.0438   -55.503067    40.391145    40.391145    40.391145            0            0            0   0.71708801 
   50000    65600.926      313.623   -875.57163     5982.109    4479.0821    10461.191    9623.5123   -2158.1317    1771.2458    -1508.929    1973.0098    3146.1227    868.87861            0    5988.0111   -1122.0431   -55.752649    40.330783    40.330783    40.330783            0            0            0   0.72031255 
   50416     64582.45    304.13887    854.24441    5801.2066    4515.0022    10316.209    11120.795   -2192.4942    1770.2464    -1544.292    2046.4288    3142.4583     870.4071            0    6059.2941   -1122.0441   -56.631878    40.120977    40.120977    40.120977            0            0            0     0.731672 
Loop time of 288.228 on 48 procs for 50000 steps with 6400 atoms

Performance: 14.988 ns/day, 1.601 hours/ns, 173.474 timesteps/s
67.0% CPU use with 48 MPI tasks x 1 OpenMP threads

MPI task timing breakdown:
Section |  min time  |  avg time  |  max time  |%varavg| %total
---------------------------------------------------------------
Pair    | 108.42     | 125.07     | 149.44     |  82.2 | 43.39
Bond    | 5.0717     | 5.6868     | 6.0825     |   9.1 |  1.97
Kspace  | 24.465     | 47.932     | 65.133     | 136.1 | 16.63
Neigh   | 22.85      | 24.106     | 25.084     |  16.5 |  8.36
Comm    | 47.846     | 54.826     | 66.392     |  57.3 | 19.02
Output  | 0.058875   | 0.059734   | 0.067895   |   0.5 |  0.02
Modify  | 17.673     | 23.92      | 27.283     |  45.5 |  8.30
Other   |            | 6.624      |            |       |  2.30

Nlocal:    133.333 ave 155 max 114 min
Histogram: 3 4 2 7 10 8 7 5 1 1
Nghost:    6751.08 ave 6776 max 6725 min
Histogram: 1 1 5 6 12 7 8 3 2 3
Neighs:    93354 ave 107127 max 75782 min
Histogram: 1 2 3 8 6 7 5 8 5 3

Total # of neighbors = 4480990
Ave neighs/atom = 700.155
Ave special neighs/atom = 10.75
Neighbor list builds = 5730
Dangerous builds = 0

unfix npt_density

fix reshape_box all deform 1 x final 0.0 37.4456 y final 0.0 37.4456 z final 0.0 37.4456 units box

run 100000
Ewald initialization ...
  using 12-bit tables for long-range coulomb (src/kspace.cpp:332)
  G vector (1/distance) = 0.115446
  estimated absolute RMS force accuracy = 0.0338213
  estimated relative force accuracy = 0.000101852
  KSpace vectors: actual max1d max3d = 61 3 171
                  kxmax kymax kzmax  = 3 3 3
Per MPI rank memory allocation (min/avg/max) = 21.36 | 21.4 | 21.43 Mbytes
Step Volume Temp Press KinEng PotEng TotEng Enthalpy E_vdwl E_coul E_pair E_bond E_angle E_dihed E_impro E_mol E_long E_tail Lx Ly Lz Xy Xz Yz Density 
   50416     64582.45    304.13887    854.23708    5801.2066    4514.9971    10316.204    11120.783   -2192.4942    1769.2701    -1544.297    2046.4288    3142.4583     870.4071            0    6059.2941   -1121.0729   -56.631878    40.120977    40.120977    40.120977            0            0            0     0.731672 
   51000    64507.029    304.13887    1716.2204    5801.2066    4512.0709    10313.277    11927.844   -2187.7614    1769.6973   -1539.1372    2038.3427    3142.4583     870.4071            0    6051.2081   -1121.0731   -56.698091    40.105353    40.105353    40.105353            0            0            0   0.73252747 
   52000    64378.019    304.13887    3197.9885    5801.2066    4508.9372    10310.144    13312.695   -2179.5043    1770.1176   -1530.4601     2026.532    3142.4583     870.4071            0    6039.3973   -1121.0734    -56.81171    40.078599    40.078599    40.078599            0            0            0    0.7339954 
   53000    64249.182    304.13887    4685.9126    5801.2066    4509.0074    10310.214    14700.954   -2171.0685    1770.9617   -1521.1804    2017.3225    3142.4583     870.4071            0    6030.1878   -1121.0737   -56.925634    40.051846    40.051846    40.051846            0            0            0   0.73546727 
   54000    64120.517    304.13887    6177.9436    5801.2066    4511.4487    10312.655    16089.848   -2162.4541    1771.3971    -1512.131    2010.7143    3142.4583     870.4071            0    6023.5797    -1121.074   -57.039861    40.025092    40.025092    40.025092            0            0            0   0.73694307 
   55000    63992.024    304.13887    7674.3681    5801.2066    4516.3673    10317.574     17479.74   -2153.6631    1771.5318   -1503.2055    2006.7075    3142.4583     870.4071            0    6019.5728   -1121.0743   -57.154395    39.998338    39.998338    39.998338            0            0            0   0.73842282 
   56000    63863.702    304.13887    9177.6279    5801.2066    4524.7298    10325.936    18873.856   -2144.6881    1772.3252   -1493.4375    2005.3019    3142.4583     870.4071            0    6018.1673   -1121.0746   -57.269236    39.971584    39.971584    39.971584            0            0            0   0.73990653 
   57000    63735.552    304.13887    10684.535    5801.2066    4535.2539    10336.461    20267.924   -2135.5277    1772.4933   -1484.1092    2006.4977    3142.4583     870.4071            0    6019.3631   -1121.0749   -57.384384    39.944831    39.944831    39.944831            0            0            0   0.74139423 
   58000    63607.574    304.13887    12196.188    5801.2066    4548.3701    10349.577    21663.386   -2126.1759     1772.461   -1474.7901    2010.2948    3142.4583     870.4071            0    6023.1602   -1121.0751   -57.499841    39.918077    39.918077    39.918077            0            0            0   0.74288591 
   59000    63479.767    304.13887    13714.678    5801.2066    4564.8971    10366.104    23062.979   -2116.6383    1773.0523   -1464.6615    2016.6932    3142.4583     870.4071            0    6029.5586   -1121.0754   -57.615609    39.891323    39.891323    39.891323            0            0            0    0.7443816 
   60000    63352.131    304.13887    15239.721    5801.2066    4584.7096    10385.916    24466.289    -2106.914    1774.1411   -1453.8486    2025.6929    3142.4583     870.4071            0    6038.5583   -1121.0757   -57.731687    39.864569    39.864569    39.864569            0            0            0   0.74588131 
   61000    63224.667    304.13887    16768.268    5801.2066    4606.5918    10407.798    25869.263   -2096.9899    1774.4985   -1443.5675    2037.2939    3142.4583     870.4071            0    6050.1593    -1121.076   -57.848077    39.837816    39.837816    39.837816            0            0            0   0.74738504 
   62000    63097.373    304.13887    18303.005    5801.2066    4631.5958    10432.802    27275.419   -2086.8708    1775.1813   -1432.7658    2051.4963    3142.4583     870.4071            0    6064.3616   -1121.0763   -57.964781    39.811062    39.811062    39.811062            0            0            0   0.74889283 
   63000    62970.251    304.13887    19842.443    5801.2066    4659.1237     10460.33    28682.768   -2076.5556    1775.5908   -1422.0415    2068.2999    3142.4583     870.4071            0    6081.1652   -1121.0766   -58.081798    39.784308    39.784308    39.784308            0            0            0   0.75040467 
   64000    62843.299    304.13887    21387.381    5801.2066    4689.4798    10490.686     30092.33   -2066.0427    1776.0292   -1411.0904    2087.7048    3142.4583     870.4071            0    6100.5702   -1121.0769   -58.199131    39.757554    39.757554    39.757554            0            0            0   0.75192058 
   65000    62716.519    304.13887    22937.307    5801.2066    4722.4539    10523.661    31503.408   -2055.3263     1776.281   -1400.1226    2109.7111    3142.4583     870.4071            0    6122.5765   -1121.0772    -58.31678      39.7308      39.7308      39.7308            0            0            0   0.75344058 
   66000    62589.909    304.13887    24494.276    5801.2066    4758.8403    10560.047    32918.658   -2044.4013    1777.1351   -1388.3438    2134.3187    3142.4583     870.4071            0     6147.184   -1121.0775   -58.434746    39.704047    39.704047    39.704047            0            0            0   0.75496468 
   67000    62463.469    304.13887     26054.38    5801.2066    4797.0999    10598.307    34332.951   -2033.2692     1777.054    -1377.293    2161.5276    3142.4583     870.4071            0    6174.3929   -1121.0778    -58.55303    39.677293    39.677293    39.677293            0            0            0   0.75649289 
   68000      62337.2    304.13887    27620.377    5801.2066    4838.3011    10639.508    35749.859   -2021.9279     1777.104    -1365.902    2191.3378    3142.4583     870.4071            0    6204.2031   -1121.0781   -58.671634    39.650539    39.650539    39.650539            0            0            0   0.75802523 
   69000    62211.101    304.13887    29193.257    5801.2066    4882.8169    10684.024     37170.63   -2010.3733     1777.654   -1353.7977    2223.7493    3142.4583     870.4071            0    6236.6146   -1121.0784   -58.790559    39.623785    39.623785    39.623785            0            0            0   0.75956171 
   70000    62085.172    304.13887    30772.447    5801.2066    4930.4132     10731.62    38594.487   -1998.6027    1778.4672   -1341.2143    2258.7621    3142.4583     870.4071            0    6271.6274   -1121.0787   -58.909805    39.597032    39.597032    39.597032            0            0            0   0.76110235 
   71000    61959.413    304.13887    32357.428    5801.2066    4980.8757    10782.082    40020.723   -1986.6166    1779.3297   -1328.3659    2296.3762    3142.4583     870.4071            0    6309.2416    -1121.079   -59.029374    39.570278    39.570278    39.570278            0            0            0   0.76264716 
   72000    61833.824    304.13887    33946.572    5801.2066    5033.5661    10834.773    41447.211   -1974.4026     1779.591   -1315.8909    2336.5916    3142.4583     870.4071            0     6349.457   -1121.0793   -59.149267    39.543524    39.543524    39.543524            0            0            0   0.76419615 
   73000    61708.406    304.13887    35541.109    5801.2066    5088.9493    10890.156    42875.512   -1961.9673    1779.7225   -1303.3244    2379.4084    3142.4583     870.4071            0    6392.2737   -1121.0796   -59.269485     39.51677     39.51677     39.51677            0            0            0   0.76574933 
   74000    61583.156    304.13887    37143.381    5801.2066     5147.916    10949.123    44308.602   -1949.3089     1780.613   -1289.7758    2424.8264    3142.4583     870.4071            0    6437.6918   -1121.0799   -59.390028    39.490016    39.490016    39.490016            0            0            0   0.76730673 
   75000    61458.077    304.13887    38749.337    5801.2066    5208.8964    11010.103     45741.25   -1936.4203    1780.6858   -1276.8147    2472.8458    3142.4583     870.4071            0    6485.7112   -1121.0802   -59.510899    39.463263    39.463263    39.463263            0            0            0   0.76886836 
   76000    61333.166    304.13887    40361.811    5801.2066    5272.9696    11074.176    47177.063   -1923.2985    1781.0167   -1263.3622    2523.4665    3142.4583     870.4071            0    6536.3318   -1121.0805   -59.632098    39.436509    39.436509    39.436509            0            0            0   0.77043422 
   77000    61208.426    304.13887    41981.174    5801.2066    5340.2644    11141.471    48616.474   -1909.9442    1781.7355   -1249.2895    2576.6885    3142.4583     870.4071            0    6589.5538   -1121.0808   -59.753626    39.409755    39.409755    39.409755            0            0            0   0.77200434 
   78000    61083.854    304.13887    43606.904    5801.2066    5410.5683    11211.775    50058.783   -1896.3533    1782.6255   -1234.8088    2632.5118    3142.4583     870.4071            0    6645.3771   -1121.0811   -59.875485    39.383001    39.383001    39.383001            0            0            0   0.77357873 
   79000    60959.452    304.13887    45238.573    5801.2066    5483.7068    11284.913     51503.41    -1882.521    1783.5074    -1220.095    2690.9364    3142.4583     870.4071            0    6703.8018   -1121.0814   -59.997675    39.356248    39.356248    39.356248            0            0            0    0.7751574 
   80000    60835.218    304.13887     46876.61    5801.2066    5559.8309    11361.038    52950.869   -1868.4474    1784.5323   -1204.9968    2751.9623    3142.4583     870.4071            0    6764.8277   -1121.0817   -60.120199    39.329494    39.329494    39.329494            0            0            0   0.77674038 
   81000    60711.154    304.13887     48518.78    5801.2066    5638.0816    11439.288    54398.297   -1854.1265    1784.8351   -1190.3733    2815.5896    3142.4583     870.4071            0    6828.4549    -1121.082   -60.243055     39.30274     39.30274     39.30274            0            0            0   0.77832766 
   82000    60587.258    304.13887    50167.296    5801.2066    5719.2875    11520.494    55848.468   -1839.5556    1785.2419   -1175.3959    2881.8181    3142.4583     870.4071            0    6894.6835   -1121.0822   -60.366247    39.275986    39.275986    39.275986            0            0            0   0.77991928 
   83000    60463.531    304.13887    51823.421    5801.2066    5803.9141    11605.121    57302.939   -1824.7322    1786.2155   -1159.5992     2950.648    3142.4583     870.4071            0    6963.5133   -1121.0825   -60.489775    39.249232    39.249232    39.249232            0            0            0   0.78151523 
   84000    60339.972    304.13887    53486.393    5801.2066     5891.659    11692.866     58760.71   -1809.6579    1787.4553   -1143.2855    3022.0791    3142.4583     870.4071            0    7034.9445   -1121.0828    -60.61364    39.222479    39.222479    39.222479            0            0            0   0.78311554 
   85000    60216.582    304.13887    55154.723    5801.2066    5981.9491    11783.156    60219.873   -1794.3262    1788.3814   -1127.0279    3096.1116    3142.4583     870.4071            0     7108.977   -1121.0831   -60.737844    39.195725    39.195725    39.195725            0            0            0   0.78472023 
   86000    60093.361    304.13887    56826.786    5801.2066    6074.1644    11875.371    61678.368   -1778.7322    1788.3693   -1111.4464    3172.7454    3142.4583     870.4071            0    7185.6107   -1121.0834   -60.862387    39.168971    39.168971    39.168971            0            0            0    0.7863293 
   87000    59970.307    304.13887    58505.536    5801.2066     6169.404    11970.611     63139.87   -1762.8753    1788.5172   -1095.4418    3251.9805    3142.4583     870.4071            0    7264.8458   -1121.0837   -60.987271    39.142217    39.142217    39.142217            0            0            0   0.78794278 
   88000    59847.422    304.13887    60190.763    5801.2066    6267.5768    12068.783     64604.08   -1746.7484     1788.727   -1079.1054    3333.8169    3142.4583     870.4071            0    7346.6823    -1121.084   -61.112497    39.115464    39.115464    39.115464            0            0            0   0.78956067 
   89000    59724.704    304.13887    61884.667    5801.2066    6369.4905    12170.697      66073.7   -1730.3501    1789.8049   -1061.6295    3418.2546    3142.4583     870.4071            0      7431.12   -1121.0843   -61.238066     39.08871     39.08871     39.08871            0            0            0   0.79118299 
   90000    59602.155    304.13887    63583.923    5801.2066    6473.8904    12275.097     67544.55   -1713.6795    1790.4955   -1044.2686    3505.2937    3142.4583     870.4071            0     7518.159   -1121.0846   -61.363979    39.061956    39.061956    39.061956            0            0            0   0.79280976 
   91000    59479.773    304.13887    65288.505    5801.2066    6580.7573    12381.964    69016.574   -1696.7322     1790.775   -1027.0421     3594.934    3142.4583     870.4071            0    7607.7993   -1121.0849   -61.490238    39.035202    39.035202    39.035202            0            0            0     0.794441 
   92000    59357.559    304.13887    67000.423    5801.2066    6690.8252    12492.032    70492.228   -1679.5053    1791.3746   -1009.2159    3687.1756    3142.4583     870.4071            0     7700.041   -1121.0852   -61.616843    39.008448    39.008448    39.008448            0            0            0   0.79607671 
   93000    59235.512    304.13887    68719.118    5801.2066    6803.8728    12605.079    71970.782   -1661.9984    1792.0727   -991.01115    3782.0186    3142.4583     870.4071            0     7794.884   -1121.0855   -61.743796    38.981695    38.981695    38.981695            0            0            0   0.79771692 
   94000    59113.633    304.13887    70443.455    5801.2066    6919.4696    12720.676    73450.803    -1644.199    1792.4261   -972.85868    3879.4629    3142.4583     870.4071            0    7892.3282   -1121.0858   -61.871098    38.954941    38.954941    38.954941            0            0            0   0.79936163 
   95000    58991.921    304.13887    72174.659    5801.2066    7038.0536     12839.26    74933.765   -1626.1147    1792.8805   -954.32018    3979.5085    3142.4583     870.4071            0    7992.3738    -1121.086    -61.99875    38.928187    38.928187    38.928187            0            0            0   0.80101087 
   96000    58870.376    304.13887    73913.536    5801.2066    7159.9096    12961.116    76420.621   -1607.7335    1793.7088   -935.11111    4082.1554    3142.4583     870.4071            0    8095.0207   -1121.0863   -62.126754    38.901433    38.901433    38.901433            0            0            0   0.80266465 
   97000    58748.999    304.13887    75657.953    5801.2066    7284.2388    13085.445    77908.717   -1589.0597    1794.1162    -916.0301    4187.4036    3142.4583     870.4071            0    8200.2689   -1121.0866    -62.25511     38.87468     38.87468     38.87468            0            0            0   0.80432299 
   98000    58627.788    304.13887    77408.351    5801.2066    7411.1928    13212.399    79398.564   -1570.0848     1794.246   -896.92565    4295.2531    3142.4583     870.4071            0    8308.1184   -1121.0869    -62.38382    38.847926    38.847926    38.847926            0            0            0    0.8059859 
   99000    58506.744    304.13887    79165.928    5801.2066    7541.1973    13342.404    80891.591   -1550.8038    1794.5191   -877.37198    4405.7039    3142.4583     870.4071            0    8418.5693   -1121.0872   -62.512886    38.821172    38.821172    38.821172            0            0            0   0.80765339 
  100000    58385.867    304.13887    80930.453    5801.2066    7674.1542    13475.361    82387.478   -1531.2142    1794.8345   -857.46718    4518.7561    3142.4583     870.4071            0    8531.6214   -1121.0875   -62.642307    38.794418    38.794418    38.794418            0            0            0   0.80932549 
  101000    58265.156    304.13887    82702.556    5801.2066    7810.2789    13611.486    83886.952   -1511.3155    1795.4074   -836.99593    4634.4095    3142.4583     870.4071            0    8647.2749   -1121.0878   -62.772086    38.767665    38.767665    38.767665            0            0            0   0.81100221 
  102000    58144.612    304.13887    84481.447    5801.2066    7949.2702    13750.477    85389.014   -1491.1015    1795.9301   -816.25947    4752.6643    3142.4583     870.4071            0    8765.5296   -1121.0881   -62.902224    38.740911    38.740911    38.740911            0            0            0   0.81268356 
  103000    58024.235    304.13887    86266.249    5801.2066     8090.796    13892.003    86892.568   -1470.5698    1796.0684   -795.58969    4873.5203    3142.4583     870.4071            0    8886.3857   -1121.0884   -63.032721    38.714157    38.714157    38.714157            0            0            0   0.81436956 
  104000    57904.023    304.13887    88061.566    5801.2066    8236.5105    14037.717    88403.137   -1449.7189    1797.4749   -773.33262    4996.9777    3142.4583     870.4071            0    9009.8431   -1121.0887    -63.16358    38.687403    38.687403    38.687403            0            0            0   0.81606023 
  105000    57783.978    304.13887     89863.21    5801.2066    8384.8816    14186.088    89915.617    -1428.542    1798.6108   -751.02021    5123.0364    3142.4583     870.4071            0    9135.9018   -1121.0889   -63.294801    38.660649    38.660649    38.660649            0            0            0   0.81775558 
  106000    57664.099    304.13887    91670.413    5801.2066    8535.6209    14336.828    91429.053   -1407.0315    1799.1799   -728.94088    5251.6964    3142.4583     870.4071            0    9264.5618   -1121.0892   -63.426386    38.633896    38.633896    38.633896            0            0            0   0.81945563 
  107000    57544.385    304.13887    93484.042    5801.2066    8689.0287    14490.235    92944.459   -1385.1883    1799.4834   -706.79435    5382.9577    3142.4583     870.4071            0    9395.8231   -1121.0895   -63.558336    38.607142    38.607142    38.607142            0            0            0    0.8211604 
  108000    57424.838    304.13887    95303.597    5801.2066    8844.9125    14646.119      94461.2    -1363.008    1799.3246   -684.77325    5516.8204    3142.4583     870.4071            0    9529.6857   -1121.0898   -63.690653    38.580388    38.580388    38.580388            0            0            0    0.8228699 
  109000    57305.456    304.13887     97132.97    5801.2066    9004.6538     14805.86    95983.895   -1340.4867    1800.0809   -661.49584    5653.2843    3142.4583     870.4071            0    9666.1497   -1121.0901   -63.823337    38.553634    38.553634    38.553634            0            0            0   0.82458414 
  110000     57186.24    304.13887    98968.426    5801.2066    9166.8993    14968.106    97508.036   -1317.6212     1800.396   -638.31557    5792.3496    3142.4583     870.4071            0    9805.2149   -1121.0904   -63.956389    38.526881    38.526881    38.526881            0            0            0   0.82630316 
  111000    57067.189    304.13887    100811.25    5801.2066    9332.0958    15133.302     99035.12   -1294.4015    1800.7065   -614.78571    5934.0161    3142.4583     870.4071            0    9946.8815   -1121.0907   -64.089812    38.500127    38.500127    38.500127            0            0            0   0.82802695 
  112000    56948.303    304.13887    102661.13    5801.2066    9500.1181    15301.325    100564.74   -1270.8279    1800.8876   -591.03125     6078.284    3142.4583     870.4071            0    10091.149    -1121.091   -64.223606    38.473373    38.473373    38.473373            0            0            0   0.82975554 
  113000    56829.583    304.13887    104519.53    5801.2066    9671.4679    15472.674    102098.58   -1246.8964     1801.437   -566.55066    6225.1532    3142.4583     870.4071            0    10238.019   -1121.0912   -64.357773    38.446619    38.446619    38.446619            0            0            0   0.83148895 
  114000    56711.028    304.13887     106385.2    5801.2066    9845.6915    15646.898    103635.14   -1222.6073    1801.9013   -541.79754    6374.6237    3142.4583     870.4071            0    10387.489   -1121.0915   -64.492314    38.419865    38.419865    38.419865            0            0            0   0.83322719 
  115000    56592.638    304.13887     108257.2    5801.2066    10022.438    15823.644    105173.25   -1197.9484     1801.917   -517.12326    6526.6955    3142.4583     870.4071            0    10539.561   -1121.0918    -64.62723    38.393112    38.393112    38.393112            0            0            0   0.83497028 
  116000    56474.412    304.13887    110136.09    5801.2066    10201.894    16003.101    106713.54   -1172.9172    1801.6699   -492.33943    6681.3686    3142.4583     870.4071            0    10694.234   -1121.0921   -64.762522    38.366358    38.366358    38.366358            0            0            0   0.83671823 
  117000    56356.352    304.13887    112023.32    5801.2066    10384.555    16185.762    108257.68   -1147.5124    1801.6513   -466.95347     6838.643    3142.4583     870.4071            0    10851.508   -1121.0924   -64.898193    38.339604    38.339604    38.339604            0            0            0   0.83847106 
  118000    56238.456    304.13887    113921.41    5801.2066    10571.292    16372.499    109808.58   -1121.7237    1802.7244   -440.09198    6998.5187    3142.4583     870.4071            0    11011.384   -1121.0927   -65.034243     38.31285     38.31285     38.31285            0            0            0    0.8402288 
  119000    56120.725    304.13887    115823.65    5801.2066    10759.732    16560.939    111358.34   -1095.5579    1802.5218   -414.12906    7160.9958    3142.4583     870.4071            0    11173.861    -1121.093   -65.170673    38.286097    38.286097    38.286097            0            0            0   0.84199145 
  120000    56003.158    304.13887    117735.46    5801.2066    10951.757    16752.963    112913.23   -1068.9975    1802.9079   -387.18287    7326.0741    3142.4583     870.4071            0    11338.939   -1121.0932   -65.307485    38.259343    38.259343    38.259343            0            0            0   0.84375903 
  121000    55885.755    304.13887       119654    5801.2066    11146.366    16947.573    114469.94    -1042.042    1802.8827   -360.25286    7493.7538    3142.4583     870.4071            0    11506.619   -1121.0935    -65.44468    38.232589    38.232589    38.232589            0            0            0   0.84553157 
  122000    55768.517    304.13887    121581.64    5801.2066     11344.36    17145.567    116031.15   -1014.6911    1803.2448   -332.54012    7664.0348    3142.4583     870.4071            0      11676.9   -1121.0938    -65.58226    38.205835    38.205835    38.205835            0            0            0   0.84730907 
  123000    55651.443    304.13887    123518.26    5801.2066    11545.689    17346.895    117596.69   -986.94176    1803.9421   -304.09375    7836.9171    3142.4583     870.4071            0    11849.782   -1121.0941   -65.720226    38.179081    38.179081    38.179081            0            0            0   0.84909156 
  124000    55534.532    304.13887    125463.59    5801.2066    11750.235    17551.442    119166.18   -958.78187    1804.8452   -275.03102    8012.4007    3142.4583     870.4071            0    12025.266   -1121.0944   -65.858579    38.152328    38.152328    38.152328            0            0            0   0.85087905 
  125000    55417.786    304.13887    127414.46    5801.2066    11956.888    17758.095    120735.93   -930.20797    1804.8398   -246.46284    8190.4856    3142.4583     870.4071            0    12203.351   -1121.0947   -65.997321    38.125574    38.125574    38.125574            0            0            0   0.85267157 
  126000    55301.203    304.13887    129376.18    5801.2066    12167.467    17968.673    122312.03   -901.22613    1805.7508   -216.57033    8371.1718    3142.4583     870.4071            0    12384.037    -1121.095   -66.136452     38.09882     38.09882     38.09882            0            0            0   0.85446912 
  127000    55184.784    304.13887    131344.17    5801.2066    12380.374    18181.581    123889.14   -871.82087    1805.9659   -186.95018    8554.4593    3142.4583     870.4071            0    12567.325   -1121.0952   -66.275976    38.072066    38.072066    38.072066            0            0            0   0.85627173 
  128000    55068.528    304.13887    133320.61    5801.2066    12596.347    18397.554    125469.73   -841.99021    1806.2194   -156.86631    8740.3482    3142.4583     870.4071            0    12753.214   -1121.0955   -66.415891    38.045313    38.045313    38.045313            0            0            0   0.85807941 
  129000    54952.436    304.13887    135306.62    5801.2066    12815.752    18616.958    127055.05   -811.72537    1806.8693    -125.9519    8928.8383    3142.4583     870.4071            0    12941.704   -1121.0958   -66.556201    38.018559    38.018559    38.018559            0            0            0   0.85989218 
  130000    54836.507    304.13887    137300.14    5801.2066    13037.866    18839.072    128642.69    -781.0232    1807.1898   -94.929477    9119.9298    3142.4583     870.4071            0    13132.795   -1121.0961   -66.696907    37.991805    37.991805    37.991805            0            0            0   0.86171007 
  131000    54720.741    304.13887    139303.01    5801.2066    13263.303     19064.51    130234.71   -749.87901    1807.7904   -63.185022    9313.6226    3142.4583     870.4071            0    13326.488   -1121.0964   -66.838009    37.965051    37.965051    37.965051            0            0            0   0.86353308 
  132000    54605.139    304.13887    141315.07    5801.2066    13491.986    19293.193    131830.86   -718.28705    1808.5882   -30.795518    9509.9166    3142.4583     870.4071            0    13522.782   -1121.0967   -66.979509    37.938298    37.938298    37.938298            0            0            0   0.86536124 
  133000    54489.699    304.13887    143335.12    5801.2066    13723.491    19524.698    133429.73   -686.24596     1809.157     1.814102     9708.812    3142.4583     870.4071            0    13721.677   -1121.0969    -67.12141    37.911544    37.911544    37.911544            0            0            0   0.86719456 
  134000    54374.422    304.13887    145363.37    5801.2066    13957.874    19759.081    135031.53   -653.74613    1809.5431    34.699773    9910.3087    3142.4583     870.4071            0    13923.174   -1121.0972   -67.263711     37.88479     37.88479     37.88479            0            0            0   0.86903306 
  135000    54259.307    304.13887    147402.49    5801.2066    14196.021    19997.227    136639.22   -620.78591     1810.632    68.748611    10114.407    3142.4583     870.4071            0    14127.272   -1121.0975   -67.406415    37.858036    37.858036    37.858036            0            0            0   0.87087677 
  136000    54144.356    304.13887    149444.62    5801.2066    14435.258    20236.464     138243.9   -587.35438    1809.7385    101.28631    10321.106    3142.4583     870.4071            0    14333.971   -1121.0978   -67.549523    37.831282    37.831282    37.831282            0            0            0   0.87272569 
  137000    54029.566    304.13887    151499.58    5801.2066    14678.884    20480.091    139856.58   -553.45139    1810.1618    135.61235    10530.407    3142.4583     870.4071            0    14543.272   -1121.0981   -67.693036    37.804529    37.804529    37.804529            0            0            0   0.87457985 
  138000     53914.94    304.13887    153566.13    5801.2066    14926.458    20727.664     141475.8   -519.07076    1811.4528     171.2837    10742.309    3142.4583     870.4071            0    14755.174   -1121.0983   -67.836956    37.777775    37.777775    37.777775            0            0            0   0.87643927 
  139000    53800.475    304.13887    155639.91    5801.2066      15176.5    20977.706    143096.63   -484.20373    1812.1248    206.82246    10956.812    3142.4583     870.4071            0    14969.677   -1121.0986   -67.981285    37.751021    37.751021    37.751021            0            0            0   0.87830396 
  140000    53686.172    304.13887    157722.75    5801.2066    15429.598    21230.805    144721.05   -448.84304    1812.7582    242.81629    11173.917    3142.4583     870.4071            0    15186.782   -1121.0989   -68.126023    37.724267    37.724267    37.724267            0            0            0   0.88017395 
  141000    53572.032    304.13887    159814.55    5801.2066    15685.707    21486.914    146348.92   -412.98961    1813.3084    279.21964    11393.622    3142.4583     870.4071            0    15406.488   -1121.0992   -68.271172    37.697514    37.697514    37.697514            0            0            0   0.88204925 
  142000    53458.053    304.13887     161915.3    5801.2066    15944.804    21746.011    147980.17   -376.63162    1813.7401    316.00905     11615.93    3142.4583     870.4071            0    15628.795   -1121.0995   -68.416734     37.67076     37.67076     37.67076            0            0            0   0.88392988 
  143000    53344.236    304.13887    164026.69    5801.2066    16207.435    22008.642    149616.65   -339.76827    1814.6001    353.73205    11840.838    3142.4583     870.4071            0    15853.703   -1121.0997    -68.56271    37.644006    37.644006    37.644006            0            0            0   0.88581586 
  144000    53230.581    304.13887    166147.66    5801.2066    16473.225    22274.432    151257.09   -302.38861    1815.5003    392.01171    12068.348    3142.4583     870.4071            0    16081.213      -1121.1   -68.709101    37.617252    37.617252    37.617252            0            0            0    0.8877072 
  145000    53117.087    304.13887    168275.09    5801.2066    16741.119    22542.326    152898.01   -264.48791     1815.383    429.79481    12298.459    3142.4583     870.4071            0    16311.324   -1121.1003    -68.85591    37.590498    37.590498    37.590498            0            0            0   0.88960394 
  146000    53003.755    304.13887    170416.05    5801.2066    17013.443     22814.65    154547.18   -226.06881    1816.5759    469.40651    12531.171    3142.4583     870.4071            0    16544.037   -1121.1006   -69.003137    37.563745    37.563745    37.563745            0            0            0   0.89150609 
  147000    52890.584    304.13887    172566.24    5801.2066    17288.753    23089.959    156199.78   -187.11697    1817.6198    509.40194    12766.485    3142.4583     870.4071            0    16779.351   -1121.1009   -69.150784    37.536991    37.536991    37.536991            0            0            0   0.89341366 
  148000    52777.575    304.13887    174723.79    5801.2066    17566.411    23367.618     157853.7   -147.62019     1817.867    549.14569      13004.4    3142.4583     870.4071            0    17017.266   -1121.1011   -69.298853    37.510237    37.510237    37.510237            0            0            0   0.89532667 
  149000    52664.726    304.13887    176892.01    5801.2066    17847.495    23648.701    159512.56   -107.58282     1818.397    589.71273    13244.917    3142.4583     870.4071            0    17257.782   -1121.1014   -69.447345    37.483483    37.483483    37.483483            0            0            0   0.89724516 
  150000    52552.038    304.13887    179069.98    5801.2066    18131.677    23932.883    161175.26   -66.997531    1818.8763    630.77706    13488.034    3142.4583     870.4071            0      17500.9   -1121.1017   -69.596261     37.45673     37.45673     37.45673            0            0            0   0.89916912 
  150416    52505.208    304.13887    179978.05    5801.2066    18250.531    24051.738    161867.16   -49.949494    1818.7796    647.72825    13589.937    3142.4583     870.4071            0    17602.803   -1121.1018   -69.658336      37.4456      37.4456      37.4456            0            0            0   0.89997111 
Loop time of 492.642 on 48 procs for 100000 steps with 6400 atoms

Performance: 17.538 ns/day, 1.368 hours/ns, 202.987 timesteps/s
72.1% CPU use with 48 MPI tasks x 1 OpenMP threads

MPI task timing breakdown:
Section |  min time  |  avg time  |  max time  |%varavg| %total
---------------------------------------------------------------
Pair    | 222.91     | 279.06     | 322.66     | 142.9 | 56.65
Bond    | 7.7681     | 10.148     | 12.555     |  28.8 |  2.06
Kspace  | 38.129     | 80.731     | 139.76     | 275.7 | 16.39
Neigh   | 0.055184   | 0.058382   | 0.061017   |   0.8 |  0.01
Comm    | 88.614     | 100.1      | 119.08     |  77.6 | 20.32
Output  | 0.11493    | 0.12556    | 0.14087    |   1.3 |  0.03
Modify  | 0.41636    | 0.52155    | 0.74893    |  12.2 |  0.11
Other   |            | 21.89      |            |       |  4.44

Nlocal:    133.333 ave 154 max 113 min
Histogram: 3 2 3 7 10 8 7 5 2 1
Nghost:    7836.08 ave 7911 max 7763 min
Histogram: 1 3 7 6 9 6 8 2 4 2
Neighs:    114049 ave 131136 max 92155 min
Histogram: 1 2 3 6 8 6 6 9 6 1

Total # of neighbors = 5474346
Ave neighs/atom = 855.367
Ave special neighs/atom = 10.75
Neighbor list builds = 13
Dangerous builds = 0
# >>>>>>>>>  Equilibration run <<<<<<<<<<<<<<<<<<<<<<<<<<<<<<<<<<

fix             NVT_equib all nvt temp ${simulationTemp} ${simulationTemp} 100
fix             NVT_equib all nvt temp 310 ${simulationTemp} 100
fix             NVT_equib all nvt temp 310 310 100

print           "Step Density Temperature Pressure KinEng PotEng TotEng" file Properties_equib_Coctane.txt
Step Density Temperature Pressure KinEng PotEng TotEng
fix             PRINT_equib all print ${printfreq} "$(v_step) $(v_density) $(v_temp) $(v_press) $(v_pe) $(v_ke) $(v_etotal) $(v_enthalpy)" append Properties_equib_Coctane.txt title ""
fix             PRINT_equib all print 1000 "$(v_step) $(v_density) $(v_temp) $(v_press) $(v_pe) $(v_ke) $(v_etotal) $(v_enthalpy)" append Properties_equib_Coctane.txt title ""
# The 'print' and fix print' commands as used above will create a file named 'Properties_equib.txt' which allows you to quickly make plots to test for equilibration


run             ${NVT_equib}
run             100000
Ewald initialization ...
  using 12-bit tables for long-range coulomb (src/kspace.cpp:332)
  G vector (1/distance) = 0.117711
  estimated absolute RMS force accuracy = 0.0335174
  estimated relative force accuracy = 0.000100937
  KSpace vectors: actual max1d max3d = 61 3 171
                  kxmax kymax kzmax  = 3 3 3
Per MPI rank memory allocation (min/avg/max) = 21.38 | 21.42 | 21.45 Mbytes
Step Volume Temp Press KinEng PotEng TotEng Enthalpy E_vdwl E_coul E_pair E_bond E_angle E_dihed E_impro E_mol E_long E_tail Lx Ly Lz Xy Xz Yz Density 
  150416    52505.208    304.13887     179979.3    5801.2066    18250.592    24051.799    161868.17   -49.908151     1840.543    647.54385    13590.183    3142.4583     870.4071            0    17603.048    -1143.091   -69.658336      37.4456      37.4456      37.4456            0            0            0   0.89997111 
151000 0.89997111369369497957 324.39784577244500952 12383.90526381339987 4670.6744357478701204 6187.6305284529798882 10858.304964200899121 20341.08969596839961
  151000    52505.208    324.39785    12383.905    6187.6305    4670.6744    10858.305     20341.09   -2389.9002    1785.7322    -1747.258    2166.7544    3175.6722    1075.5058            0    6417.9325     -1143.09   -69.658336      37.4456      37.4456      37.4456            0            0            0   0.89997111 
152000 0.89997111369369497957 313.06167593390699722 11361.417800909999642 4015.9162993249101419 5971.4021179293704336 9987.3184172542696615 18687.149121589398419
  152000    52505.208    313.06168    11361.418    5971.4021    4015.9163    9987.3184    18687.149   -2515.7478    1787.4914   -1871.3473    1875.7539    3023.0972     988.4125            0    5887.2636    -1143.091   -69.658336      37.4456      37.4456      37.4456            0            0            0   0.89997111 
153000 0.89997111369369497957 311.79216330309702698 11079.624547945200902 4045.2420723957297923 5947.1871756508298859 9992.4292480465701374 18476.48110880979948
  153000    52505.208    311.79216    11079.625    5947.1872    4045.2421    9992.4292    18476.481   -2500.5073    1786.4341   -1857.1863    1854.5793    3053.8219    994.02716            0    5902.4283   -1143.1131   -69.658336      37.4456      37.4456      37.4456            0            0            0   0.89997111 
154000 0.89997111369369497957 308.28630825048799124 9158.4589542083194829 4163.0415323951801838 5880.3157829009796842 10043.357315296199886 17056.306210444901808
  154000    52505.208    308.28631     9158.459    5880.3158    4163.0415    10043.357    17056.306   -2576.8011    1783.6114   -1936.2923    1960.7341     3149.303     989.2967            0    6099.3338   -1143.1026   -69.658336      37.4456      37.4456      37.4456            0            0            0   0.89997111 
155000 0.89997111369369497957 307.03579878637100364 10756.132849056299165 4043.390112565220079 5856.463310891310357 9899.853423456519522 18136.196497877401271
  155000    52505.208     307.0358    10756.133    5856.4633    4043.3901    9899.8534    18136.196   -2575.0399    1787.5725   -1930.5541    1945.7075    3058.6859     969.5508            0    5973.9442   -1143.0867   -69.658336      37.4456      37.4456      37.4456            0            0            0   0.89997111 
156000 0.89997111369369497957 313.99712485967597786 9415.3968686817097478 4096.5532994412096741 5989.245061112629628 10085.798360553799284 17295.493506620699918
  156000    52505.208    313.99712    9415.3969    5989.2451    4096.5533    10085.798    17295.494   -2625.4946    1789.2521   -1979.3425    1971.9469    3160.5612    943.38768            0    6075.8958   -1143.0999   -69.658336      37.4456      37.4456      37.4456            0            0            0   0.89997111 
157000 0.89997111369369497957 304.9346546191019911 9133.6694790055698832 4083.7653813894798986 5816.3856594410599428 9900.1510408305402962 16894.117777124400163
  157000    52505.208    304.93465    9133.6695    5816.3857    4083.7654     9900.151    16894.118   -2631.9312    1787.9742    -1987.052    1965.8328     3169.914    935.07058            0    6070.8174    -1143.095   -69.658336      37.4456      37.4456      37.4456            0            0            0   0.89997111 
158000 0.89997111369369497957 312.10698174377898795 9504.5732404143291205 3920.5838686556699031 5953.1920866570899307 9873.7759553127598338 17151.756534632299008
  158000    52505.208    312.10698    9504.5732    5953.1921    3920.5839     9873.776    17151.757    -2613.868    1781.7584   -1975.1649    1913.4859    3070.8627    911.40021            0    5895.7488   -1143.0553   -69.658336      37.4456      37.4456      37.4456            0            0            0   0.89997111 
159000 0.89997111369369497957 313.98106734216798941 9978.9421410225804721 3969.1159284781101633 5988.9387767558200721 9958.0547052339297807 17599.275964459000534
  159000    52505.208    313.98107    9978.9421    5988.9388    3969.1159    9958.0547    17599.276   -2635.6345    1790.1398   -1988.5769    1967.3695    3075.7331    914.59031            0    5957.6929   -1143.0822   -69.658336      37.4456      37.4456      37.4456            0            0            0   0.89997111 
160000 0.89997111369369497957 301.98550995007997244 10847.876532252799734 4051.7070684142299797 5760.1330738438600747 9811.8401422580791404 18118.434529146201385
  160000    52505.208    301.98551    10847.877    5760.1331    4051.7071    9811.8401    18118.435   -2629.5724    1782.8598   -1989.7961    1942.5663    3150.8795    948.05748            0    6041.5032   -1143.0835   -69.658336      37.4456      37.4456      37.4456            0            0            0   0.89997111 
161000 0.89997111369369497957 311.56666843496401498 8758.8953557929307863 3973.8052958194698476 5942.8860406456096825 9916.6913364650699805 16623.680559789201652
  161000    52505.208    311.56667    8758.8954     5942.886    3973.8053    9916.6913    16623.681   -2651.3342    1784.2642   -2010.1387    1968.2303     3116.044    899.66968            0     5983.944   -1143.0687   -69.658336      37.4456      37.4456      37.4456            0            0            0   0.89997111 
162000 0.89997111369369497957 308.89895047165197184 10503.447012916400126 3966.3664713800399113 5892.0014453062603934 9858.3679166863093997 17901.220703686900379
  162000    52505.208    308.89895    10503.447    5892.0014    3966.3665    9858.3679    17901.221   -2648.6741    1783.5001   -2008.2552    1941.0084    3104.5451    929.06812            0    5974.6216   -1143.0812   -69.658336      37.4456      37.4456      37.4456            0            0            0   0.89997111 
163000 0.89997111369369497957 313.00111375445499107 8539.0625411735691159 3925.0217013795099774 5970.2469425934796163 9895.2686439729895937 16433.924275138098892
  163000    52505.208    313.00111    8539.0625    5970.2469    3925.0217    9895.2686    16433.924    -2676.407    1782.4832   -2037.0309    1974.6182    3051.0925    936.34188            0    5962.0526   -1143.1071   -69.658336      37.4456      37.4456      37.4456            0            0            0   0.89997111 
164000 0.89997111369369497957 305.9174610307809985 7393.6446184228598213 3977.1673403109998617 5835.1319089483104108 9812.299249259309363 15473.868746610700327
  164000    52505.208    305.91746    7393.6446    5835.1319    3977.1673    9812.2992    15473.869   -2730.1348    1783.8631   -2089.3698    1988.4129    3115.5125    962.61177            0    6066.5372   -1143.0981   -69.658336      37.4456      37.4456      37.4456            0            0            0   0.89997111 
165000 0.89997111369369497957 308.54460541718998456 7762.8303805783398275 3997.1124063857901092 5885.2425956246997885 9882.3550020104903524 15826.622810918299365
  165000    52505.208    308.54461    7762.8304    5885.2426    3997.1124     9882.355    15826.623   -2699.9423    1785.1758   -2057.8099    2033.4306    3091.6779    929.81382            0    6054.9223   -1143.0435   -69.658336      37.4456      37.4456      37.4456            0            0            0   0.89997111 
166000 0.89997111369369497957 313.9396285659950081 9002.7509527365600661 3920.1277953976200479 5988.148365105909761 9908.2761605035193497 16801.994051577501523
  166000    52505.208    313.93963     9002.751    5988.1484    3920.1278    9908.2762    16801.994   -2699.5753    1782.8622   -2059.8069    1930.6521    3106.8797    942.40285            0    5979.9347   -1143.0938   -69.658336      37.4456      37.4456      37.4456            0            0            0   0.89997111 
167000 0.89997111369369497957 308.62223102265500074 8964.6890481266891584 3868.890425078050157 5886.723242220929933 9755.6136672989796352 16620.186241107800015
  167000    52505.208    308.62223     8964.689    5886.7232    3868.8904    9755.6137    16620.186   -2706.5047    1782.3122   -2067.2998     1918.433    3086.9409    930.81638            0    5936.1903   -1143.1073   -69.658336      37.4456      37.4456      37.4456            0            0            0   0.89997111 
168000 0.89997111369369497957 308.56983604573997582 7443.4845497994101606 4034.4443940079399908 5885.7238497683501919 9920.1682437762792688 15619.901900996599579
  168000    52505.208    308.56984    7443.4845    5885.7238    4034.4444    9920.1682    15619.902   -2739.4342    1782.4641   -2100.0935    1993.4418    3188.5995     952.4965            0    6134.5379   -1143.1234   -69.658336      37.4456      37.4456      37.4456            0            0            0   0.89997111 
169000 0.89997111369369497957 309.88617033286499236 8256.5344280057397555 3954.0968764216499949 5910.8318778480997935 9864.9287542697602476 16187.242833980100841
  169000    52505.208    309.88617    8256.5344    5910.8319    3954.0969    9864.9288    16187.243   -2671.5831    1779.8041   -2034.8729     2033.146    3050.0934    905.73036            0    5988.9698   -1143.0939   -69.658336      37.4456      37.4456      37.4456            0            0            0   0.89997111 
170000 0.89997111369369497957 304.27086964235400046 8090.2165770367801088 3965.573379465400194 5803.7244897077298447 9769.2978691731295839 15964.256615958100156
  170000    52505.208    304.27087    8090.2166    5803.7245    3965.5734    9769.2979    15964.257   -2711.6201    1780.2234   -2074.4419    1976.8305    3128.6855    934.49924            0    6040.0152   -1143.0452   -69.658336      37.4456      37.4456      37.4456            0            0            0   0.89997111 
171000 0.89997111369369497957 312.73952175606700621 9023.6933700837707875 3870.9917075756497979 5965.257283579649993 9836.2489911552893318 16746.003215779699531
  171000    52505.208    312.73952    9023.6934    5965.2573    3870.9917     9836.249    16746.003    -2708.223    1779.6317   -2071.6971    2042.4329    3008.6982    891.55761            0    5942.6888   -1143.1057   -69.658336      37.4456      37.4456      37.4456            0            0            0   0.89997111 
172000 0.89997111369369497957 308.47752384305601936 7242.99937991959996 3986.1870827890102191 5883.963068027909685 9870.1501508169203589 15416.365376865400322
  172000    52505.208    308.47752    7242.9994    5883.9631    3986.1871    9870.1502    15416.365   -2696.2966    1780.2487   -2059.1362    1979.5963    3114.3745    951.35239            0    6045.3232   -1143.0883   -69.658336      37.4456      37.4456      37.4456            0            0            0   0.89997111 
173000 0.89997111369369497957 308.57049033236700097 8985.9115103154999815 3847.134574488709859 5885.736329764619768 9732.8709042533300817 16613.694251636999979
  173000    52505.208    308.57049    8985.9115    5885.7363    3847.1346    9732.8709    16613.694   -2696.1496    1778.2379   -2060.9875    1934.0217     3038.622    935.47832            0     5908.122   -1143.0757   -69.658336      37.4456      37.4456      37.4456            0            0            0   0.89997111 
174000 0.89997111369369497957 312.5423330697029769 8779.7322458294802345 3914.6239303130200824 5961.4960664460995758 9876.119996759120113 16599.06474772060028
  174000    52505.208    312.54233    8779.7322    5961.4961    3914.6239      9876.12    16599.065   -2710.1418    1782.1459    -2071.066    1967.6795    3095.9849     922.0255            0    5985.6899   -1143.0701   -69.658336      37.4456      37.4456      37.4456            0            0            0   0.89997111 
175000 0.89997111369369497957 312.50633012717202064 9343.0454064468794968 3970.8543385686498368 5960.8093389933001163 9931.6636775619408581 17085.956805704201543
  175000    52505.208    312.50633    9343.0454    5960.8093    3970.8543    9931.6637    17085.957   -2674.7712     1775.622   -2042.2645    1968.2469    3113.1451    931.72683            0    6013.1188   -1143.1152   -69.658336      37.4456      37.4456      37.4456            0            0            0   0.89997111 
176000 0.89997111369369497957 314.08754100897800754 8272.1750973304406216 3881.133986670340164 5990.9696771450098822 9872.1036638153491367 16206.394345179800439
  176000    52505.208    314.08754    8272.1751    5990.9697     3881.134    9872.1037    16206.394   -2730.9346     1780.339   -2093.6743    1942.0655    3105.1273    927.61547            0    5974.8083   -1143.0787   -69.658336      37.4456      37.4456      37.4456            0            0            0   0.89997111 
177000 0.89997111369369497957 309.38941880775900017 6943.3193725051996807 3908.8356300724999528 5901.3567381643397312 9810.192368236839684 15126.932243966699389
  177000    52505.208    309.38942    6943.3194    5901.3567    3908.8356    9810.1924    15126.932   -2753.7719    1778.9502    -2117.916    1949.4792    3119.1468    958.12557            0    6026.7516   -1143.0943   -69.658336      37.4456      37.4456      37.4456            0            0            0   0.89997111 
178000 0.89997111369369497957 310.0319407697630254 8335.1723539145405084 3961.292076334289959 5913.6123328272296931 9874.9044091615196521 16257.434269537099681
  178000    52505.208    310.03194    8335.1724    5913.6123    3961.2921    9874.9044    16257.434   -2712.7192    1780.1971   -2075.6179    1996.4269    3102.7938    937.68928            0      6036.91   -1143.0958   -69.658336      37.4456      37.4456      37.4456            0            0            0   0.89997111 
179000 0.89997111369369497957 308.27330058202102236 9266.7005996791394864 3965.1680590369401216 5880.0676719854500334 9845.2357310223906097 16941.068999165399873
  179000    52505.208     308.2733    9266.7006    5880.0677    3965.1681    9845.2357    16941.069   -2717.8325    1780.6081   -2080.3113    1957.2345    3128.8948    959.35003            0    6045.4793   -1143.0869   -69.658336      37.4456      37.4456      37.4456            0            0            0   0.89997111 
180000 0.89997111369369497957 312.74669649909299096 9623.1358802617596666 4006.9085793732201637 5965.3941360882599838 9972.302715461479238 17341.070810266101034
  180000    52505.208     312.7467    9623.1359    5965.3941    4006.9086    9972.3027    17341.071   -2666.7748    1777.2684   -2032.6118    1947.7713    3163.5844    928.16478            0    6039.5204   -1143.1055   -69.658336      37.4456      37.4456      37.4456            0            0            0   0.89997111 
181000 0.8999711169369497957 316.17880392601102812 8478.6437946823698439 3823.6054503006098457 6030.8588516173103926 9854.4643019179202383 16346.855208463999588
  181000    52505.208     316.1788    8478.6438    6030.8589    3823.6055    9854.4643    16346.855   -2719.2079    1782.7136   -2079.5849    1921.5562    3050.3973     931.2369            0    5903.1904   -1143.0906   -69.658336      37.4456      37.4456      37.4456            0            0            0   0.89997111 
182000 0.89997111369369497957 305.89467019309302032 8431.6427183764408255 3872.7291271568301454 5834.6971918721001202 9707.4263190289293561 16163.826875255299456
  182000    52505.208    305.89467    8431.6427    5834.6972    3872.7291    9707.4263    16163.827   -2723.2253    1779.6808   -2086.6133    1977.8008    3056.1426    925.39897            0    5959.3424   -1143.0688   -69.658336      37.4456      37.4456      37.4456            0            0            0   0.89997111 
183000 0.89997111369369497957 311.43959537639602786 8740.7892189617796248 3935.7834543192298042 5940.4622232658603025 9876.245677585089652 16569.3704054826012
  183000    52505.208     311.4396    8740.7892    5940.4622    3935.7835    9876.2457     16569.37   -2701.5505    1781.0172   -2063.6404    1910.3522    3133.8222    955.24947            0    5999.4238    -1143.107   -69.658336      37.4456      37.4456      37.4456            0            0            0   0.89997111 
184000 0.89997111369369497957 314.65439157222897393 8379.5159531128792878 3974.9189608560700435 6001.7819001481802843 9976.7008610042503278 16393.18614953209908
  184000    52505.208    314.65439     8379.516    6001.7819     3974.919    9976.7009    16393.186   -2692.9448    1778.9582   -2057.1009    1976.8505    3107.4165    947.75284            0    6032.0198   -1143.1143   -69.658336      37.4456      37.4456      37.4456            0            0            0   0.89997111 
185000 0.89997111369369497957 307.08350836255300464 7501.1641149566303284 3853.8826732434799851 5857.3733330567702069 9711.2560063002492825 15455.156902219199765
  185000    52505.208    307.08351    7501.1641    5857.3733    3853.8827     9711.256    15455.157   -2701.9749     1777.591   -2067.4706    1933.5036    3066.8686    920.98107            0    5921.3532   -1143.0867   -69.658336      37.4456      37.4456      37.4456            0            0            0   0.89997111 
186000 0.89997111369369497957 315.83210056344199756 10863.464333181900656 3832.5399364459899516 6024.2457611220897888 9856.7856975680806499 18175.316202950598381
  186000    52505.208     315.8321    10863.464    6024.2458    3832.5399    9856.7857    18175.316   -2698.8893    1780.6462   -2061.3006    1934.6211    3030.0694       929.15            0    5893.8405   -1143.0574   -69.658336      37.4456      37.4456      37.4456            0            0            0   0.89997111 
187000 0.89997111369369497957 310.13938454481098006 9420.6493094679608475 3985.6074081633100832 5915.6617372583696124 9901.2691454216801503 17114.986267127998872
[...]
253000 0.89997111369369497957 305.62500647412099397 7778.2723272819102931 3933.9379033025202261 5829.553571217170429 9763.4914745196892909 15719.583716294999249
  253000    52505.208    305.62501    7778.2723    5829.5536    3933.9379    9763.4915    15719.584    -2768.856    1780.3761   -2131.5903    2001.6739    3176.0686    887.78575            0    6065.5282   -1143.1104   -69.658336      37.4456      37.4456      37.4456            0            0            0   0.89997111 
254000 0.89997111369369398037 306.7210699545490229 8501.2964108557407599 3872.1796303235300911 5850.4601091026797803 9722.6397394262094167 16232.37653793500067
254000 0.89997111369369398037 306.7210699545490229 8501.2964108557407599 3872.1796303235300911 5850.4601091026797803 9722.6397394262094167 16232.37653793500067
  254000    52505.208    306.72107    8501.2964    5850.4601    3872.1796    9722.6397    16232.377   -2734.2584    1783.0665    -2094.312    1928.8756    3160.8016    876.81433            0    5966.4916   -1143.1201   -69.658336      37.4456      37.4456      37.4456            0            0            0   0.89997111 
255000 0.89997111369369398037 308.21149692184400237 7450.6444759916203111 3962.0953487237798072 5878.888816393579873 9840.9841651173592254 15546.200425549699503
255000 0.89997111369369398037 308.21149692184400237 7450.6444759916203111 3962.0953487237798072 5878.888816393579873 9840.9841651173592254 15546.200425549699503
  255000    52505.208     308.2115    7450.6445    5878.8888    3962.0953    9840.9842      15546.2   -2733.6363    1782.1323   -2094.5996    2032.8369    3117.8962     905.9619            0     6056.695   -1143.0956   -69.658336      37.4456      37.4456      37.4456            0            0            0   0.89997111 
256000 0.89997111369369497957 308.35920509713201909 9371.1273947521294758 3857.1380939958598901 5881.7062321891098691 9738.8443261849697592 16914.640804382499482
256000 0.89997111369369497957 308.35920509713201909 9371.1273947521294758 3857.1380939958598901 5881.7062321891098691 9738.8443261849697592 16914.640804382499482
  256000    52505.208    308.35921    9371.1274    5881.7062    3857.1381    9738.8443    16914.641   -2717.2602    1785.1417   -2075.2228    1984.9452    3032.5547    914.86101            0    5932.3609   -1143.1043   -69.658336      37.4456      37.4456      37.4456            0            0            0   0.89997111 
257000 0.89997111369369497957 317.14442011766897167 7327.5893425947797368 3847.1548072710597808 6049.2772113694900327 9896.4320186405493587 15507.420705841099334
257000 0.89997111369369497957 317.14442011766897167 7327.5893425947797368 3847.1548072710597808 6049.2772113694900327 9896.4320186405493587 15507.420705841099334
  257000    52505.208    317.14442    7327.5893    6049.2772    3847.1548     9896.432    15507.421   -2763.2351    1781.2767   -2125.0589    2010.4141    3060.1427    901.65695            0    5972.2137   -1143.1005   -69.658336      37.4456      37.4456      37.4456            0            0            0   0.89997111 
258000 0.89997111369369497957 307.20807709100898819 7284.1751431028997104 3827.762310364899804 5859.7493823343102122 9687.5116926992104709 15265.256625259100474
258000 0.89997111369369497957 307.20807709100898819 7284.1751431028997104 3827.762310364899804 5859.7493823343102122 9687.5116926992104709 15265.256625259100474
  258000    52505.208    307.20808    7284.1751    5859.7494    3827.7623    9687.5117    15265.257   -2754.3415     1784.632     -2112.81    1971.9122    3067.6879    900.97226            0    5940.5723   -1143.1005   -69.658336      37.4456      37.4456      37.4456            0            0            0   0.89997111 
259000 0.89997111369369497957 305.17444363773699934 8295.2434275484501995 4018.6754820483902222 5820.9594439819702529 9839.6349260303504707 16191.589825984799973
259000 0.89997111369369497957 305.17444363773699934 8295.2434275484501995 4018.6754820483902222 5820.9594439819702529 9839.6349260303504707 16191.589825984799973
  259000    52505.208    305.17444    8295.2434    5820.9594    4018.6755    9839.6349     16191.59   -2706.8465    1778.3578    -2071.607    2011.6835    3156.7035    921.89551            0    6090.2825   -1143.1183   -69.658336      37.4456      37.4456      37.4456            0            0            0   0.89997111 
260000 0.89997111369369497957 312.23523873089197878 8815.1307557569907658 3871.1359402177199627 5955.6384865308700682 9826.7744267485904857 16576.825041516200145
260000 0.89997111369369497957 312.23523873089197878 8815.1307557569907658 3871.1359402177199627 5955.6384865308700682 9826.7744267485904857 16576.825041516200145
  260000    52505.208    312.23524    8815.1308    5955.6385    3871.1359    9826.7744    16576.825   -2725.0832    1785.8661   -2082.3394    1937.9234    3098.5887    916.96335            0    5953.4754   -1143.1223   -69.658336      37.4456      37.4456      37.4456            0            0            0   0.89997111 
261000 0.89997111369369398037 310.9031956785689772 7376.7521540310099226 3826.9452692000099887 5930.2308262668402676 9757.1760954668498016 15405.810448370299127
261000 0.89997111369369398037 310.9031956785689772 7376.7521540310099226 3826.9452692000099887 5930.2308262668402676 9757.1760954668498016 15405.810448370299127
  261000    52505.208     310.9032    7376.7522    5930.2308    3826.9453    9757.1761     15405.81   -2742.7267    1783.0776   -2102.7606    1897.5774    3144.9084    887.22013            0    5929.7059   -1143.1115   -69.658336      37.4456      37.4456      37.4456            0            0            0   0.89997111 
262000 0.89997111369369497957 307.14122468750900907 7085.9165754195701084 3902.1613346303101935 5858.4742259848198955 9760.635560615130089 15186.567048343300485
262000 0.89997111369369497957 307.14122468750900907 7085.9165754195701084 3902.1613346303101935 5858.4742259848198955 9760.635560615130089 15186.567048343300485
  262000    52505.208    307.14122    7085.9166    5858.4742    3902.1613    9760.6356    15186.567   -2747.6891    1783.0472   -2107.7234    1971.8769    3109.8736    928.13424            0    6009.8847   -1143.0815   -69.658336      37.4456      37.4456      37.4456            0            0            0   0.89997111 
263000 0.89997111369369497957 313.24086931336898942 8186.1905973070297478 3811.0864701158498065 5974.8200889168401773 9785.9065590327008977 16054.355933747800009
263000 0.89997111369369497957 313.24086931336898942 8186.1905973070297478 3811.0864701158498065 5974.8200889168401773 9785.9065590327008977 16054.355933747800009
  263000    52505.208    313.24087    8186.1906    5974.8201    3811.0865    9785.9066    16054.356   -2763.2427    1781.7725   -2124.5523     1928.205     3095.373    912.06078            0    5935.6388   -1143.0821   -69.658336      37.4456      37.4456      37.4456            0            0            0   0.89997111 
264000 0.89997111369369398037 306.04248549124497458 7758.3592561757996009 3822.1141270839298159 5837.5166509509399475 9659.6307780348706729 15600.474892291000288
264000 0.89997111369369398037 306.04248549124497458 7758.3592561757996009 3822.1141270839298159 5837.5166509509399475 9659.6307780348706729 15600.474892291000288
  264000    52505.208    306.04249    7758.3593    5837.5167    3822.1141    9659.6308    15600.475   -2740.5636    1786.9208   -2096.7555    1935.8256    3077.7345    905.30951            0    5918.8696   -1143.1127   -69.658336      37.4456      37.4456      37.4456            0            0            0   0.89997111 
265000 0.89997111369369398037 311.50659107974797735 7542.9174153091398694 3819.0629493522601479 5941.7401129458903597 9760.8030622981495981 15536.675904921299662
265000 0.89997111369369398037 311.50659107974797735 7542.9174153091398694 3819.0629493522601479 5941.7401129458903597 9760.8030622981495981 15536.675904921299662
  265000    52505.208    311.50659    7542.9174    5941.7401    3819.0629    9760.8031    15536.676   -2783.9054    1789.5315   -2137.4509    1974.7423    3106.2732    875.49832            0    5956.5138    -1143.077   -69.658336      37.4456      37.4456      37.4456            0            0            0   0.89997111 
266000 0.89997111369369497957 313.01096736736002413 8112.0938691531600853 3793.4291776298200602 5970.4348924113501198 9763.8640700411706348 15975.575016332999439
266000 0.89997111369369497957 313.01096736736002413 8112.0938691531600853 3793.4291776298200602 5970.4348924113501198 9763.8640700411706348 15975.575016332999439
  266000    52505.208    313.01097    8112.0939    5970.4349    3793.4292    9763.8641    15975.575   -2768.5451    1786.6349   -2125.0009    1972.6468     3050.352    895.43122            0    5918.4301   -1143.0908   -69.658336      37.4456      37.4456      37.4456            0            0            0   0.89997111 
267000 0.89997111369369497957 310.38234835939198319 7944.735759744959978 3883.1697377614700599 5920.2960785032501008 9803.4658162647192512 15887.024867752299542
267000 0.89997111369369497957 310.38234835939198319 7944.735759744959978 3883.1697377614700599 5920.2960785032501008 9803.4658162647192512 15887.024867752299542
  267000    52505.208    310.38235    7944.7358    5920.2961    3883.1697    9803.4658    15887.025   -2720.2117    1783.4602   -2079.8525    1942.4453    3107.7845     912.7924            0    5963.0222   -1143.1009   -69.658336      37.4456      37.4456      37.4456            0            0            0   0.89997111 
268000 0.89997111369369497957 314.69425636409999925 10146.331073334800749 3871.8072097988601854 6002.5422893012300847 9874.3494991000898153 17643.746255293401191
268000 0.89997111369369497957 314.69425636409999925 10146.331073334800749 3871.8072097988601854 6002.5422893012300847 9874.3494991000898153 17643.746255293401191
  268000    52505.208    314.69426    10146.331    6002.5423    3871.8072    9874.3495    17643.746   -2753.7556    1788.1004    -2108.746    1987.5711    3093.8311    899.15097            0    5980.5532   -1143.0909   -69.658336      37.4456      37.4456      37.4456            0            0            0   0.89997111 
269000 0.89997111369369497957 306.68464227181198112 7879.5125930023996261 3760.1326688337298947 5849.7652800687601484 9609.8979489024895884 15643.513364956199439
269000 0.89997111369369497957 306.68464227181198112 7879.5125930023996261 3760.1326688337298947 5849.7652800687601484 9609.8979489024895884 15643.513364956199439
  269000    52505.208    306.68464    7879.5126    5849.7653    3760.1327    9609.8979    15643.513   -2767.7009    1788.9193   -2121.8957    1941.8722    3041.0118    899.14436            0    5882.0283   -1143.1141   -69.658336      37.4456      37.4456      37.4456            0            0            0   0.89997111 
270000 0.89997111369369497957 308.50450474193598893 8796.2635678370097594 3810.2698646257199471 5884.4777071840198914 9694.7475718097393838 16430.350928000301792
270000 0.89997111369369497957 308.50450474193598893 8796.2635678370097594 3810.2698646257199471 5884.4777071840198914 9694.7475718097393838 16430.350928000301792
  270000    52505.208     308.5045    8796.2636    5884.4777    3810.2699    9694.7476    16430.351   -2722.6789     1786.254   -2079.5166    1968.9139    3040.5618    880.31076            0    5889.7865   -1143.0917   -69.658336      37.4456      37.4456      37.4456            0            0            0   0.89997111 
271000 0.89997111369369497957 312.23181787258897657 8507.1996306419005123 3907.6610407024500091 5955.5732363834003991 9863.2342770858595031 16377.491375230700214
271000 0.89997111369369497957 312.23181787258897657 8507.1996306419005123 3907.6610407024500091 5955.5732363834003991 9863.2342770858595031 16377.491375230700214
  271000    52505.208    312.23182    8507.1996    5955.5732     3907.661    9863.2343    16377.491   -2723.0086    1786.7139   -2079.3923    1997.5384    3084.8291    904.68587            0    5987.0534   -1143.0976   -69.658336      37.4456      37.4456      37.4456            0            0            0   0.89997111 
272000 0.89997111369369497957 319.26479865240202116 8384.876514946730822 3758.6218035950200829 6089.7217430591199445 9848.3435466541395726 16268.933602848499504
272000 0.89997111369369497957 319.26479865240202116 8384.876514946730822 3758.6218035950200829 6089.7217430591199445 9848.3435466541395726 16268.933602848499504
  272000    52505.208     319.2648    8384.8765    6089.7217    3758.6218    9848.3435    16268.934   -2726.6292    1786.6028    -2083.146    1950.3305    2995.9144    895.52293            0    5841.7678   -1143.1196   -69.658336      37.4456      37.4456      37.4456            0            0            0   0.89997111 
273000 0.89997111369369497957 305.74732225024200716 8924.9305564517908351 3907.9445029732301009 5831.8866472233903551 9739.8311501966200012 16573.959271324198198
273000 0.89997111369369497957 305.74732225024200716 8924.9305564517908351 3907.9445029732301009 5831.8866472233903551 9739.8311501966200012 16573.959271324198198
  273000    52505.208    305.74732    8924.9306    5831.8866    3907.9445    9739.8312    16573.959   -2738.6607    1788.3246   -2093.4369    1980.2878    3134.0362    887.05743            0    6001.3814   -1143.1009   -69.658336      37.4456      37.4456      37.4456            0            0            0   0.89997111 
274000 0.89997111369369497957 310.30072847805598713 7768.0032104050096677 3893.146269109559853 5918.7392442761802158 9811.885513385739614 15760.114337066799635
274000 0.89997111369369497957 310.30072847805598713 7768.0032104050096677 3893.146269109559853 5918.7392442761802158 9811.885513385739614 15760.114337066799635
  274000    52505.208    310.30073    7768.0032    5918.7392    3893.1463    9811.8855    15760.114   -2736.7672    1784.2106    -2095.679    2017.4384    3094.4548    876.93208            0    5988.8253   -1143.1224   -69.658336      37.4456      37.4456      37.4456            0            0            0   0.89997111 
275000 0.89997111369369497957 312.3541001909269994 8509.8105884358992625 3983.8804843499401613 5957.9056742090597254 9941.7861585589998867 16458.042557423301332
275000 0.89997111369369497957 312.3541001909269994 8509.8105884358992625 3983.8804843499401613 5957.9056742090597254 9941.7861585589998867 16458.042557423301332
  275000    52505.208     312.3541    8509.8106    5957.9057    3983.8805    9941.7862    16458.043   -2731.4201    1786.6687   -2087.8357    2011.2143    3179.0829    881.41899            0    6071.7162   -1143.0842   -69.658336      37.4456      37.4456      37.4456            0            0            0   0.89997111 
276000 0.89997111369369497957 309.99767648079199489 8550.9330775388498296 3877.0245379230300387 5912.9587688062702 9789.9833067293002387 16337.728618298500805
276000 0.89997111369369497957 309.99767648079199489 8550.9330775388498296 3877.0245379230300387 5912.9587688062702 9789.9833067293002387 16337.728618298500805
  276000    52505.208    309.99768    8550.9331    5912.9588    3877.0245    9789.9833    16337.729   -2759.2298    1783.1323   -2119.1778    1962.6389    3137.2276    896.33583            0    5996.2023   -1143.0803   -69.658336      37.4456      37.4456      37.4456            0            0            0   0.89997111 
277000 0.89997111369369497957 310.68732499096699939 8247.494417591169622 3838.0812439955298032 5926.1132648396796867 9764.1945088352094899 16079.586339795399908
277000 0.89997111369369497957 310.68732499096699939 8247.494417591169622 3838.0812439955298032 5926.1132648396796867 9764.1945088352094899 16079.586339795399908
  277000    52505.208    310.68732    8247.4944    5926.1133    3838.0812    9764.1945    16079.586   -2755.4693    1781.3921    -2117.165    1986.3836    3069.4433    899.41937            0    5955.2462   -1143.0878   -69.658336      37.4456      37.4456      37.4456            0            0            0   0.89997111 
278000 0.89997111369369497957 304.79922804316100837 8074.3112615916797949 3725.2416577287499422 5813.8025053709197891 9539.0441630996592721 15721.823659539599248
278000 0.89997111369369497957 304.79922804316100837 8074.3112615916797949 3725.2416577287499422 5813.8025053709197891 9539.0441630996592721 15721.823659539599248
  278000    52505.208    304.79923    8074.3113    5813.8025    3725.2417    9539.0442    15721.824    -2759.031    1782.3715   -2119.7639    1916.4014    3034.4707    894.13336            0    5845.0055   -1143.1043   -69.658336      37.4456      37.4456      37.4456            0            0            0   0.89997111 
279000 0.89997111369369497957 312.26585665923698798 7545.5263222327703261 3856.8046075030201791 5956.2224991271496037 9813.0271066301793326 15590.897679550400426
279000 0.89997111369369497957 312.26585665923698798 7545.5263222327703261 3856.8046075030201791 5956.2224991271496037 9813.0271066301793326 15590.897679550400426
  279000    52505.208    312.26586    7545.5263    5956.2225    3856.8046    9813.0271    15590.898   -2745.5507    1784.8818   -2103.7425    1959.0852    3117.3653    884.09666            0    5960.5471   -1143.0736   -69.658336      37.4456      37.4456      37.4456            0            0            0   0.89997111 
280000 0.89997111369369497957 308.69904894485898694 8546.3985473125303542 3796.4506603321801776 5888.1884829022701524 9684.6391432344498753 16228.912208118999843
280000 0.89997111369369497957 308.69904894485898694 8546.3985473125303542 3796.4506603321801776 5888.1884829022701524 9684.6391432344498753 16228.912208118999843
  280000    52505.208    308.69905    8546.3985    5888.1885    3796.4507    9684.6391    16228.912   -2746.2907    1781.5661   -2107.8247    1954.3077    3094.9878    854.97982            0    5904.2754   -1143.1001   -69.658336      37.4456      37.4456      37.4456            0            0            0   0.89997111 
  280416    52505.208    308.07068    8061.7921    5876.2028    3859.2391    9735.4419    15908.635    -2757.904     1783.285   -2117.7257    1982.9951    3089.5111    904.45867            0    5976.9648   -1143.1068   -69.658336      37.4456      37.4456      37.4456            0            0            0   0.89997111 
Loop time of 174.189 on 48 procs for 30000 steps with 6400 atoms

Performance: 14.880 ns/day, 1.613 hours/ns, 172.226 timesteps/s
72.3% CPU use with 48 MPI tasks x 1 OpenMP threads

MPI task timing breakdown:
Section |  min time  |  avg time  |  max time  |%varavg| %total
---------------------------------------------------------------
Pair    | 79.284     | 84.891     | 92.545     |  31.6 | 48.74
Bond    | 2.3598     | 3.0415     | 3.6273     |  13.3 |  1.75
Kspace  | 12.948     | 21.616     | 28.441     |  70.5 | 12.41
Neigh   | 17.27      | 17.826     | 18.367     |   8.8 | 10.23
Comm    | 31.569     | 35.727     | 42.413     |  39.4 | 20.51
Output  | 0.17791    | 0.17856    | 0.17893    |   0.1 |  0.10
Modify  | 2.3942     | 6.67       | 9.0347     |  60.1 |  3.83
Other   |            | 4.239      |            |       |  2.43

Nlocal:    133.333 ave 143 max 121 min
Histogram: 2 1 1 5 10 8 7 5 7 2
Nghost:    7883.52 ave 7938 max 7823 min
Histogram: 2 3 3 4 9 9 10 1 3 4
Neighs:    114860 ave 124309 max 105223 min
Histogram: 3 3 6 6 6 4 9 3 6 2

Total # of neighbors = 5513304
Ave neighs/atom = 861.454
Ave special neighs/atom = 10.75
Neighbor list builds = 3430
Dangerous builds = 0

write_data      restart.${NAME}.final.data
write_data      restart.Coctane.final.data
Ewald initialization ...
  using 12-bit tables for long-range coulomb (src/kspace.cpp:332)
  G vector (1/distance) = 0.117711
  estimated absolute RMS force accuracy = 0.0335174
  estimated relative force accuracy = 0.000100937
  KSpace vectors: actual max1d max3d = 61 3 171
                  kxmax kymax kzmax  = 3 3 3
Total wall time: 0:25:24

