Coctane.data - created by mBuild; units = real

6400 atoms
6200 bonds
12000 angles
16200 dihedrals
0 impropers

3 atom types
4 bond types
7 angle types
9 dihedral types

0.000000 40.000000 xlo xhi
0.000000 40.000000 ylo yhi
0.000000 40.000000 zlo zhi

Masses

1	12.010780	# opls_135
2	12.010780	# opls_136
3	1.007947	# opls_140

Pair Coeffs # lj
#	epsilon (kcal/mol)		sigma (Angstrom)
1	0.06600		3.50000		# opls_135
2	0.06600		3.50000		# opls_136
3	0.03000		2.50000		# opls_140

Bond Coeffs # harmonic
#	k(kcal/mol/angstrom^2)		req(angstrom)
1	268.0		1.529		# opls_135	opls_136
2	268.0		1.529		# opls_136	opls_136
3	340.0		1.09		# opls_135	opls_140
4	340.0		1.09		# opls_136	opls_140

Angle Coeffs # harmonic
#	k(kcal/mol/rad^2)		theteq(deg)
1	58.35		112.70000	# opls_135	opls_136	opls_136
2	37.5		110.70000	# opls_135	opls_136	opls_140
3	37.5		110.70000	# opls_136	opls_135	opls_140
4	58.35		112.70000	# opls_136	opls_136	opls_136
5	37.5		110.70000	# opls_136	opls_136	opls_140
6	33.0		107.80000	# opls_140	opls_135	opls_140
7	33.0		107.80000	# opls_140	opls_136	opls_140

Dihedral Coeffs # opls
#	f1(kcal/mol)	f2(kcal/mol)	f3(kcal/mol)	f4(kcal/mol)
1	1.30000	-0.05000		0.20000		-0.00000	# opls_135	opls_136	opls_136	opls_136
2	-0.00000	-0.00000		0.30000		-0.00000	# opls_135	opls_136	opls_136	opls_140
3	1.30000	-0.05000		0.20000		-0.00000	# opls_136	opls_136	opls_136	opls_136
4	-0.00000	-0.00000		0.30000		-0.00000	# opls_136	opls_136	opls_136	opls_140
5	-0.00000	-0.00000		0.30000		-0.00000	# opls_136	opls_136	opls_135	opls_140
6	1.30000	-0.05000		0.20000		-0.00000	# opls_136	opls_136	opls_136	opls_135
7	-0.00000	-0.00000		0.30000		-0.00000	# opls_140	opls_135	opls_136	opls_140
8	-0.00000	-0.00000		0.30000		-0.00000	# opls_140	opls_136	opls_136	opls_140
9	-0.00000	-0.00000		0.30000		-0.00000	# opls_140	opls_136	opls_135	opls_140

Atoms # full

1	1	1	-0.180000	18.818197	8.914608	17.276261
2	1	2	-0.120000	19.390636	7.630089	16.683754
3	1	2	-0.120000	19.557641	6.549931	17.762203
4	1	2	-0.120000	19.957541	5.180667	17.183204
5	1	2	-0.120000	21.306409	5.157316	16.441451
6	1	2	-0.120000	22.493742	5.521186	17.345192
7	1	2	-0.120000	23.825756	5.305299	16.616450
8	1	2	-0.120000	25.011559	5.696853	17.510725
9	1	2	-0.120000	26.368690	5.381206	16.863365
10	1	1	-0.180000	26.690497	6.301224	15.686003
11	1	3	0.060000	19.491636	9.307507	18.067659
12	1	3	0.060000	17.812921	8.726040	17.709725
13	1	3	0.060000	18.721886	9.681278	16.478783
14	1	3	0.060000	18.706658	7.265758	15.886656
15	1	3	0.060000	20.375260	7.866406	16.227648
16	1	3	0.060000	18.588625	6.419322	18.292243
17	1	3	0.060000	20.299237	6.879877	18.520180
18	1	3	0.060000	19.163323	4.841725	16.482747
19	1	3	0.060000	19.991951	4.442199	18.013731
20	1	3	0.060000	21.274821	5.835606	15.562666
21	1	3	0.060000	21.455597	4.126905	16.050438
22	1	3	0.060000	22.468717	4.890781	18.261205
23	1	3	0.060000	22.420404	6.588887	17.643705
24	1	3	0.060000	23.917864	4.234800	16.328863
25	1	3	0.060000	23.833652	5.923371	15.693229
26	1	3	0.060000	24.946076	5.127287	18.463728
27	1	3	0.060000	24.956722	6.779244	17.760816
28	1	3	0.060000	27.161845	5.509535	17.631573
29	1	3	0.060000	26.395669	4.321936	16.527040
30	1	3	0.060000	26.000822	6.110960	14.837918
31	1	3	0.060000	26.616327	7.366202	15.992725
32	1	3	0.060000	27.726707	6.105713	15.338147
33	2	1	-0.180000	13.847184	29.833707	17.531688
34	2	2	-0.120000	14.249744	28.383234	17.281061
35	2	2	-0.120000	13.499793	27.801727	16.073954
36	2	2	-0.120000	14.005250	26.404954	15.669499
37	2	2	-0.120000	13.844798	25.318054	16.747965
38	2	2	-0.120000	12.379235	25.067585	17.133067
39	2	2	-0.120000	12.255259	23.857285	18.066737
40	2	2	-0.120000	10.792779	23.624990	18.474610
41	2	2	-0.120000	10.608701	22.349725	19.311466
42	2	1	-0.180000	11.193606	22.475842	20.717934
43	2	3	0.060000	12.755875	29.902358	17.727984
44	2	3	0.060000	14.102598	30.463270	16.652802
45	2	3	0.060000	14.392656	30.223330	18.416948
46	2	3	0.060000	15.346018	28.340208	17.101450
47	2	3	0.060000	14.014868	27.794816	18.193180
48	2	3	0.060000	13.645975	28.476274	15.201825
49	2	3	0.060000	12.409123	27.772368	16.281164
50	2	3	0.060000	15.081160	26.477539	15.398476
51	2	3	0.060000	13.462663	26.084354	14.753470
52	2	3	0.060000	14.436228	25.580408	17.650584
53	2	3	0.060000	14.274835	24.376607	16.340974
54	2	3	0.060000	11.780531	24.886109	16.213428
55	2	3	0.060000	11.973445	25.961475	17.653419
56	2	3	0.060000	12.642241	22.952384	17.548512
57	2	3	0.060000	12.871805	24.038919	18.972990
58	2	3	0.060000	10.175365	23.523242	17.555178
59	2	3	0.060000	10.412575	24.504124	19.040022
60	2	3	0.060000	9.519936	22.145840	19.404882
61	2	3	0.060000	11.069341	21.481117	18.792596
62	2	3	0.060000	12.300192	22.546935	20.679043
63	2	3	0.060000	10.782224	23.370591	21.231691
64	2	3	0.060000	10.926675	21.575254	21.310089
65	3	1	-0.180000	33.615720	3.130343	25.572116
66	3	2	-0.120000	34.776186	3.805123	26.297878
67	3	2	-0.120000	35.926539	2.817314	26.539970
68	3	2	-0.120000	37.189824	3.493645	27.102761
69	3	2	-0.120000	37.008031	4.173729	28.471930
70	3	2	-0.120000	36.607730	3.189939	29.581357
71	3	2	-0.120000	36.619572	3.874403	30.953692
72	3	2	-0.120000	36.191149	2.897720	32.059004
73	3	2	-0.120000	36.306597	3.508655	33.463974
74	3	1	-0.180000	35.255964	4.586889	33.728088
75	3	3	0.060000	33.229076	2.278797	26.171762
76	3	3	0.060000	33.944474	2.760013	24.577730
77	3	3	0.060000	32.794062	3.862343	25.423505
78	3	3	0.060000	35.135092	4.660353	25.684938
79	3	3	0.060000	34.400196	4.194798	27.267491
80	3	3	0.060000	36.202888	2.344255	25.572066
81	3	3	0.060000	35.592272	2.001411	27.215193
82	3	3	0.060000	37.543578	4.255423	26.374162
83	3	3	0.060000	37.992857	2.729085	27.185704
84	3	3	0.060000	36.259966	4.991375	28.399868
85	3	3	0.060000	37.978245	4.644968	28.743064
86	3	3	0.060000	37.317508	2.333642	29.590775
87	3	3	0.060000	35.584466	2.804168	29.384928
88	3	3	0.060000	37.644676	4.248703	31.168683
89	3	3	0.060000	35.923113	4.739700	30.928811
90	3	3	0.060000	36.848134	2.001175	32.020469
91	3	3	0.060000	35.147067	2.558053	31.881119
92	3	3	0.060000	36.167712	2.697629	34.211405
93	3	3	0.060000	37.322836	3.933402	33.614779
94	3	3	0.060000	35.438409	5.478131	33.092871
95	3	3	0.060000	34.236223	4.193219	33.530830
96	3	3	0.060000	35.312262	4.903706	34.790828
97	4	1	-0.180000	12.680749	33.754659	34.843370
98	4	2	-0.120000	13.365280	33.122624	33.634780
99	4	2	-0.120000	12.357013	32.357685	32.765324
100	4	2	-0.120000	12.963530	31.858720	31.441234
101	4	2	-0.120000	14.130135	30.865788	31.593900
102	4	2	-0.120000	13.723638	29.568910	32.309286
103	4	2	-0.120000	14.861571	28.541406	32.273521
104	4	2	-0.120000	14.464902	27.255618	33.014180
105	4	2	-0.120000	15.530152	26.154629	32.897651
106	4	1	-0.180000	16.794102	26.467660	33.698036
107	4	3	0.060000	12.199927	32.971263	35.467310
108	4	3	0.060000	11.911503	34.485215	34.513863
109	4	3	0.060000	13.434135	34.287862	35.460731
110	4	3	0.060000	13.849289	33.924307	33.035641
111	4	3	0.060000	14.151037	32.429738	34.003369
112	4	3	0.060000	11.513478	33.036972	32.512324
113	4	3	0.060000	11.927951	31.508123	33.337607
114	4	3	0.060000	13.319830	32.735229	30.857208
115	4	3	0.060000	12.159025	31.377846	30.843049
116	4	3	0.060000	14.977419	31.345744	32.127840
117	4	3	0.060000	14.491374	30.614179	30.572580
118	4	3	0.060000	12.824273	29.139741	31.815247
119	4	3	0.060000	13.477579	29.790612	33.369841
120	4	3	0.060000	15.103874	28.298283	31.215533
121	4	3	0.060000	15.760963	28.985679	32.751148
122	4	3	0.060000	13.520078	26.865630	32.575862
123	4	3	0.060000	14.271409	27.479894	34.086273
124	4	3	0.060000	15.098597	25.206758	33.286247
125	4	3	0.060000	15.795685	25.989767	31.830784
126	4	3	0.060000	17.333313	27.332677	33.259748
127	4	3	0.060000	16.539930	26.686766	34.756878
128	4	3	0.060000	17.473137	25.589462	33.672767
129	5	1	-0.180000	13.604309	33.349453	19.760527
130	5	2	-0.120000	14.705571	33.983922	20.605162
131	5	2	-0.120000	15.856729	34.489569	19.723775
132	5	2	-0.120000	16.903490	35.299456	20.510171
133	5	2	-0.120000	17.622975	34.521144	21.626755
134	5	2	-0.120000	18.424444	33.321359	21.100377
135	5	2	-0.120000	19.268031	32.691778	22.215690
136	5	2	-0.120000	20.046887	31.474422	21.695496
137	5	2	-0.120000	20.998274	30.887784	22.749645
138	5	1	-0.180000	20.258804	30.184072	23.887252
139	5	3	0.060000	14.008427	32.491601	19.181753
140	5	3	0.060000	13.176075	34.096720	19.058932
141	5	3	0.060000	12.793349	32.980460	20.423263
142	5	3	0.060000	14.273206	34.829054	21.183729
143	5	3	0.060000	15.080912	33.219430	21.317928
144	5	3	0.060000	15.440006	35.155812	18.936721
145	5	3	0.060000	16.340632	33.636486	19.202770
146	5	3	0.060000	16.406225	36.185732	20.961333
147	5	3	0.060000	17.662577	35.684678	19.794850
148	5	3	0.060000	16.893626	34.184910	22.393787
149	5	3	0.060000	18.320811	35.225954	22.129907
150	5	3	0.060000	19.093162	33.655383	20.276750
151	5	3	0.060000	17.726554	32.552555	20.704950
152	5	3	0.060000	19.983515	33.448315	22.606703
153	5	3	0.060000	18.594217	32.379305	23.041975
154	5	3	0.060000	20.656925	31.786022	20.819330
155	5	3	0.060000	19.337985	30.689886	21.350409
156	5	3	0.060000	21.657832	30.144380	22.251609
157	5	3	0.060000	21.648667	31.687431	23.166114
158	5	3	0.060000	19.689262	30.914789	24.497805
159	5	3	0.060000	19.564493	29.416552	23.484013
160	5	3	0.060000	20.994639	29.680988	24.549378
161	6	1	-0.180000	3.114764	33.795545	3.061267
162	6	2	-0.120000	3.292712	34.462199	4.422386
163	6	2	-0.120000	3.366244	35.989726	4.284762
164	6	2	-0.120000	3.360814	36.715496	5.642434
165	6	2	-0.120000	4.548839	36.381537	6.562899
166	6	2	-0.120000	5.904917	36.772211	5.956815
167	6	2	-0.120000	7.035328	36.593563	6.977693
168	6	2	-0.120000	8.394786	36.956780	6.361968
169	6	2	-0.120000	9.538708	36.908555	7.386482
170	6	1	-0.180000	9.886080	35.484125	7.818346
171	6	3	0.060000	3.965921	34.048968	2.393802
172	6	3	0.060000	2.165929	34.128125	2.588903
173	6	3	0.060000	3.079387	32.693063	3.188990
174	6	3	0.060000	2.436995	34.182237	5.074535
175	6	3	0.060000	4.229112	34.076734	4.878387
176	6	3	0.060000	2.479268	36.341572	3.713387
177	6	3	0.060000	4.264141	36.276496	3.697478
178	6	3	0.060000	2.418459	36.467416	6.177902
179	6	3	0.060000	3.347624	37.811746	5.457077
180	6	3	0.060000	4.544290	35.301540	6.821599
181	6	3	0.060000	4.404934	36.942873	7.512156
182	6	3	0.060000	5.871015	37.833877	5.626915
183	6	3	0.060000	6.116989	36.130296	5.075088
184	6	3	0.060000	6.842289	37.246134	7.857492
185	6	3	0.060000	7.048913	35.535402	7.316106
186	6	3	0.060000	8.340879	37.991353	5.957419
187	6	3	0.060000	8.621021	36.274592	5.513109
188	6	3	0.060000	10.442485	37.361752	6.924414
189	6	3	0.060000	9.278409	37.516158	8.280326
190	6	3	0.060000	9.056630	35.037231	8.404348
191	6	3	0.060000	10.097920	34.849414	6.931766
192	6	3	0.060000	10.790784	35.504499	8.461815
193	7	1	-0.180000	6.650906	7.605279	36.701127
194	7	2	-0.120000	7.800518	6.921717	35.966367
195	7	2	-0.120000	8.471904	5.863004	36.852963
196	7	2	-0.120000	9.514827	5.020466	36.096335
197	7	2	-0.120000	10.703389	5.815764	35.526240
198	7	2	-0.120000	11.532918	6.515369	36.613137
199	7	2	-0.120000	12.803553	7.136676	36.020346
200	7	2	-0.120000	13.617978	7.860954	37.102613
201	7	2	-0.120000	14.959269	8.393038	36.575036
202	7	1	-0.180000	14.792336	9.575956	35.621614
203	7	3	0.060000	7.023415	8.101632	37.622578
204	7	3	0.060000	5.870481	6.863157	36.973559
205	7	3	0.060000	6.194060	8.374305	36.043159
206	7	3	0.060000	7.404619	6.445592	35.043059
207	7	3	0.060000	8.539421	7.698909	35.677650
208	7	3	0.060000	7.692217	5.167469	37.234161
209	7	3	0.060000	8.935477	6.346388	37.738852
210	7	3	0.060000	9.009440	4.491683	35.258913
211	7	3	0.060000	9.903499	4.238124	36.784208
212	7	3	0.060000	10.348145	6.558638	34.781069
213	7	3	0.060000	11.356408	5.098147	34.982651
214	7	3	0.060000	11.814595	5.777554	37.396338
215	7	3	0.060000	10.928083	7.321027	37.081711
216	7	3	0.060000	13.425852	6.335541	35.564183
217	7	3	0.060000	12.513382	7.857179	35.225934
218	7	3	0.060000	13.833539	7.147119	37.927768
219	7	3	0.060000	13.022470	8.698240	37.528578
220	7	3	0.060000	15.568644	8.728787	37.442008
221	7	3	0.060000	15.520368	7.579761	36.065485
222	7	3	0.060000	14.304735	9.255106	34.678004
223	7	3	0.060000	14.188028	10.377183	36.097644
224	7	3	0.060000	15.791374	9.990080	35.369852
225	8	1	-0.180000	27.134346	25.790871	33.340091
226	8	2	-0.120000	28.244582	26.303974	32.427489
227	8	2	-0.120000	28.646817	27.738626	32.798522
228	8	2	-0.120000	29.885059	28.232784	32.028712
229	8	2	-0.120000	29.718925	28.291916	30.499303
230	8	2	-0.120000	28.613652	29.260705	30.053512
231	8	2	-0.120000	28.609491	29.425978	28.528847
232	8	2	-0.120000	27.485472	30.372312	28.081406
233	8	2	-0.120000	27.522402	30.661108	26.572848
234	8	1	-0.180000	27.117398	29.452545	25.729331
235	8	3	0.060000	26.237178	26.440980	33.258562
236	8	3	0.060000	27.479446	25.771871	34.395824
237	8	3	0.060000	26.853893	24.759055	33.040538
238	8	3	0.060000	29.123990	25.629763	32.516982
239	8	3	0.060000	27.876267	26.271906	31.380264
240	8	3	0.060000	28.890710	27.773727	33.883085
241	8	3	0.060000	27.791307	28.428028	32.636705
242	8	3	0.060000	30.743644	27.567073	32.265279
243	8	3	0.060000	30.150828	29.246514	32.400213
244	8	3	0.060000	29.522265	27.277057	30.093438
245	8	3	0.060000	30.687488	28.630563	30.070236
246	8	3	0.060000	28.775522	30.252144	30.530968
247	8	3	0.060000	27.624220	28.867841	30.371561
248	8	3	0.060000	29.589984	29.836349	28.201149
249	8	3	0.060000	28.467110	28.428600	28.060469
250	8	3	0.060000	27.595944	31.340135	28.618082
251	8	3	0.060000	26.496851	29.944521	28.358439
252	8	3	0.060000	26.812786	31.489082	26.356953
253	8	3	0.060000	28.537071	31.002092	26.272730
254	8	3	0.060000	27.874021	28.645006	25.809961
255	8	3	0.060000	26.127187	29.066722	26.052410
256	8	3	0.060000	27.047571	29.754235	24.662998
257	9	1	-0.180000	10.426209	4.436341	2.922200
258	9	2	-0.120000	11.250238	5.373850	3.800148
259	9	2	-0.120000	11.599730	6.668098	3.051508
260	9	2	-0.120000	12.270704	7.720290	3.953025
261	9	2	-0.120000	13.614622	7.288178	4.567315
262	9	2	-0.120000	14.688257	6.989501	3.510428
263	9	2	-0.120000	16.052743	6.745401	4.166574
264	9	2	-0.120000	17.119714	6.418238	3.111250
265	9	2	-0.120000	18.526389	6.286734	3.714974
266	9	1	-0.180000	18.689581	5.027112	4.565207
267	9	3	0.060000	10.992728	4.170787	2.004193
268	9	3	0.060000	9.467277	4.918291	2.635491
269	9	3	0.060000	10.200658	3.504590	3.482554
270	9	3	0.060000	10.667963	5.612779	4.716552
271	9	3	0.060000	12.180150	4.844207	4.096976
272	9	3	0.060000	10.662953	7.116479	2.653520
273	9	3	0.060000	12.246063	6.440026	2.177668
274	9	3	0.060000	11.573231	7.982692	4.778241
275	9	3	0.060000	12.429335	8.646044	3.357956
276	9	3	0.060000	13.471519	6.404818	5.224990
277	9	3	0.060000	13.969731	8.120025	5.214479
278	9	3	0.060000	14.765710	7.848572	2.808207
279	9	3	0.060000	14.402356	6.082536	2.935843
280	9	3	0.060000	16.357352	7.654737	4.730027
281	9	3	0.060000	15.961046	5.898968	4.880407
282	9	3	0.060000	17.144851	7.237851	2.359911
283	9	3	0.060000	16.850183	5.480313	2.577608
284	9	3	0.060000	19.262206	6.242120	2.882935
285	9	3	0.060000	18.766030	7.183327	4.327009
286	9	3	0.060000	18.069054	5.088653	5.482953
287	9	3	0.060000	18.403210	4.125199	3.983569
288	9	3	0.060000	19.751522	4.925599	4.873323
289	10	1	-0.180000	21.727569	15.108588	26.248999
290	10	2	-0.120000	21.903098	16.617917	26.108086
291	10	2	-0.120000	21.296442	17.124827	24.791767
292	10	2	-0.120000	21.284896	18.660819	24.688622
293	10	2	-0.120000	22.673352	19.325098	24.721948
294	10	2	-0.120000	23.570678	18.897306	23.551174
295	10	2	-0.120000	24.865229	19.719020	23.521890
296	10	2	-0.120000	25.774942	19.270964	22.368270
297	10	2	-0.120000	27.027443	20.149743	22.228619
298	10	1	-0.180000	28.026075	19.941122	23.366768
299	10	3	0.060000	22.224353	14.582475	25.406022
300	10	3	0.060000	20.648669	14.844338	26.262146
301	10	3	0.060000	22.187231	14.768041	27.200718
302	10	3	0.060000	21.410076	17.119216	26.969223
303	10	3	0.060000	22.989654	16.845689	26.137717
304	10	3	0.060000	20.242209	16.776771	24.725108
305	10	3	0.060000	21.837985	16.684125	23.928129
306	10	3	0.060000	20.676587	19.071740	25.523732
307	10	3	0.060000	20.772431	18.947765	23.744517
308	10	3	0.060000	23.179466	19.112099	25.687256
309	10	3	0.060000	22.519264	20.425423	24.672576
310	10	3	0.060000	23.022773	19.039054	22.593665
311	10	3	0.060000	23.833444	17.822979	23.657232
312	10	3	0.060000	24.614329	20.795471	23.397552
313	10	3	0.060000	25.395638	19.587049	24.489188
314	10	3	0.060000	25.204412	19.334161	21.415691
315	10	3	0.060000	26.074300	18.209400	22.511759
316	10	3	0.060000	27.531778	19.891826	21.272151
317	10	3	0.060000	26.739264	21.222226	22.177341
318	10	3	0.060000	27.611748	20.312219	24.326830
319	10	3	0.060000	28.284549	18.865380	23.465405
320	10	3	0.060000	28.955490	20.508753	23.150114
321	11	1	-0.180000	28.128390	3.592766	7.268352
322	11	2	-0.120000	28.908192	3.879473	8.548370
323	11	2	-0.120000	27.990685	3.827233	9.778466
324	11	2	-0.120000	28.761952	3.927651	11.107040
325	11	2	-0.120000	29.550277	5.235312	11.303897
326	11	2	-0.120000	28.651243	6.480455	11.320211
327	11	2	-0.120000	29.451762	7.731607	11.701950
328	11	2	-0.120000	28.558348	8.980940	11.689819
329	11	2	-0.120000	29.292537	10.236583	12.184633
330	11	1	-0.180000	30.347731	10.732597	11.196347
331	11	3	0.060000	27.317449	4.340377	7.135491
332	11	3	0.060000	27.686570	2.574187	7.304675
333	11	3	0.060000	28.812159	3.651294	6.395388
334	11	3	0.060000	29.720568	3.127460	8.650599
335	11	3	0.060000	29.365284	4.887608	8.458409
336	11	3	0.060000	27.446844	2.857064	9.779449
337	11	3	0.060000	27.223808	4.628076	9.715965
338	11	3	0.060000	29.471093	3.073984	11.175417
339	11	3	0.060000	28.039364	3.814761	11.944546
340	11	3	0.060000	30.328799	5.337983	10.518593
341	11	3	0.060000	30.080714	5.162873	12.278722
342	11	3	0.060000	27.827333	6.332735	12.052651
343	11	3	0.060000	28.210278	6.634022	10.312024
344	11	3	0.060000	29.882984	7.595910	12.718214
345	11	3	0.060000	30.283814	7.859938	10.976945
346	11	3	0.060000	27.688163	8.806669	12.360128
347	11	3	0.060000	28.164070	9.155230	10.664493
348	11	3	0.060000	28.544386	11.045903	12.329470
349	11	3	0.060000	29.768081	10.039097	13.169900
350	11	3	0.060000	31.187141	10.010849	11.121701
351	11	3	0.060000	29.898969	10.884855	10.191763
352	11	3	0.060000	30.757224	11.702113	11.550343
353	12	1	-0.180000	22.572963	18.894643	35.174430
354	12	2	-0.120000	21.493572	19.739707	35.844894
355	12	2	-0.120000	20.180090	19.690616	35.051143
356	12	2	-0.120000	19.011304	20.376021	35.782036
357	12	2	-0.120000	19.207550	21.878113	36.056616
358	12	2	-0.120000	19.358682	22.707346	34.772699
359	12	2	-0.120000	19.365016	24.208708	35.085446
360	12	2	-0.120000	19.545282	25.036504	33.804264
361	12	2	-0.120000	19.435139	26.547875	34.057525
362	12	1	-0.180000	20.630087	27.106713	34.829516
363	12	3	0.060000	22.768622	19.265005	34.145474
364	12	3	0.060000	22.257645	17.830479	35.127992
365	12	3	0.060000	23.513851	18.959984	35.760510
366	12	3	0.060000	21.326741	19.358153	36.875676
367	12	3	0.060000	21.860319	20.786107	35.907415
368	12	3	0.060000	19.897266	18.626974	34.890930
369	12	3	0.060000	20.324889	20.141820	34.046750
370	12	3	0.060000	18.842042	19.858851	36.751670
371	12	3	0.060000	18.087903	20.239347	35.177930
372	12	3	0.060000	20.085008	22.037543	36.718424
373	12	3	0.060000	18.313180	22.236497	36.612096
374	12	3	0.060000	18.516817	22.478438	34.082786
375	12	3	0.060000	20.314263	22.444440	34.270487
376	12	3	0.060000	18.404403	24.486553	35.572459
377	12	3	0.060000	20.196377	24.424652	35.790160
378	12	3	0.060000	18.751974	24.752268	33.078468
379	12	3	0.060000	20.527742	24.803887	33.337590
380	12	3	0.060000	19.383537	27.065133	33.074933
381	12	3	0.060000	18.496191	26.776895	34.606908
382	12	3	0.060000	20.644378	26.717367	35.868413
383	12	3	0.060000	21.580941	26.840886	34.320624
384	12	3	0.060000	20.552986	28.213392	34.877206
385	13	1	-0.180000	20.794791	11.809082	24.162575
386	13	2	-0.120000	22.185304	11.428814	24.663183
387	13	2	-0.120000	22.210813	11.318223	26.194459
388	13	2	-0.120000	23.540092	10.759365	26.733664
389	13	2	-0.120000	24.780992	11.613383	26.415851
390	13	2	-0.120000	24.712990	13.020391	27.027909
391	13	2	-0.120000	26.041128	13.764778	26.843864
392	13	2	-0.120000	25.962951	15.182150	27.430479
393	13	2	-0.120000	27.310144	15.918772	27.375982
394	13	1	-0.180000	27.713157	16.309887	25.954439
395	13	3	0.060000	20.484316	12.785533	24.591933
396	13	3	0.060000	20.055071	11.030784	24.447345
397	13	3	0.060000	20.809016	11.896052	23.055659
398	13	3	0.060000	22.477645	10.457053	24.209151
399	13	3	0.060000	22.900981	12.208674	24.327045
400	13	3	0.060000	21.401365	10.627398	26.517796
401	13	3	0.060000	21.994207	12.306963	26.651443
402	13	3	0.060000	23.696225	9.740538	26.316631
403	13	3	0.060000	23.454748	10.646992	27.836561
404	13	3	0.060000	24.930214	11.682668	25.317546
405	13	3	0.060000	25.666811	11.084042	26.830600
406	13	3	0.060000	24.482415	12.941386	28.113133
407	13	3	0.060000	23.906950	13.602917	26.532493
408	13	3	0.060000	26.852803	13.199074	27.352117
409	13	3	0.060000	26.272981	13.821515	25.758766
410	13	3	0.060000	25.653395	15.113051	28.496456
411	13	3	0.060000	25.189120	15.772978	26.892678
412	13	3	0.060000	27.226729	16.847298	27.981446
413	13	3	0.060000	28.108051	15.292318	27.830727
414	13	3	0.060000	27.938560	15.408944	25.347319
415	13	3	0.060000	26.903107	16.892735	25.466725
416	13	3	0.060000	28.627554	16.938799	25.990563
417	14	1	-0.180000	28.903185	3.042057	23.405284
418	14	2	-0.120000	27.951121	4.029414	24.074193
419	14	2	-0.120000	27.764538	3.696761	25.561545
420	14	2	-0.120000	26.960766	4.768611	26.319920
421	14	2	-0.120000	25.520972	4.978627	25.816857
422	14	2	-0.120000	24.649901	3.720748	25.950603
423	14	2	-0.120000	23.185618	4.027624	25.613498
424	14	2	-0.120000	22.320327	2.763012	25.719323
425	14	2	-0.120000	20.825936	3.050840	25.508458
426	14	1	-0.180000	20.490604	3.405033	24.059916
427	14	3	0.060000	28.506480	2.007680	23.488284
428	14	3	0.060000	29.906280	3.089933	23.880190
429	14	3	0.060000	29.008035	3.297173	22.329667
430	14	3	0.060000	28.363147	5.056214	23.965357
431	14	3	0.060000	26.973919	3.980189	23.548820
432	14	3	0.060000	28.765274	3.626452	26.041728
433	14	3	0.060000	27.282043	2.702590	25.671913
434	14	3	0.060000	27.502903	5.737113	26.253623
435	14	3	0.060000	26.927873	4.490228	27.395891
436	14	3	0.060000	25.528069	5.326558	24.762232
437	14	3	0.060000	25.069779	5.793821	26.424128
438	14	3	0.060000	24.714962	3.334229	26.991509
439	14	3	0.060000	25.018664	2.937260	25.254448
440	14	3	0.060000	22.800499	4.798445	26.316830
441	14	3	0.060000	23.132699	4.431417	24.579784
442	14	3	0.060000	22.444990	2.326510	26.734622
443	14	3	0.060000	22.665087	2.004858	24.982121
444	14	3	0.060000	20.251102	2.140657	25.785654
445	14	3	0.060000	20.495755	3.873422	26.179452
446	14	3	0.060000	20.936925	4.381562	23.780118
447	14	3	0.060000	20.861186	2.616702	23.370743
448	14	3	0.060000	19.388962	3.484131	23.945521
449	15	1	-0.180000	29.539435	37.277284	15.102490
450	15	2	-0.120000	30.164081	36.118773	15.874765
451	15	2	-0.120000	29.092792	35.308458	16.618684
452	15	2	-0.120000	29.649596	34.024913	17.260967
453	15	2	-0.120000	30.734165	34.250609	18.330059
454	15	2	-0.120000	30.229812	35.060133	19.533890
455	15	2	-0.120000	31.281910	35.100478	20.648967
456	15	2	-0.120000	30.788389	35.934383	21.840693
457	15	2	-0.120000	31.761689	35.899637	23.028967
458	15	1	-0.180000	33.051373	36.674524	22.759825
459	15	3	0.060000	29.001409	37.957583	15.796695
460	15	3	0.060000	28.828956	36.894634	14.339060
461	15	3	0.060000	30.336656	37.853386	14.587149
462	15	3	0.060000	30.706892	35.461852	15.160804
463	15	3	0.060000	30.894259	36.537607	16.599183
464	15	3	0.060000	28.304631	35.005908	15.894628
465	15	3	0.060000	28.600771	35.942138	17.386618
466	15	3	0.060000	30.071168	33.377532	16.461292
467	15	3	0.060000	28.805709	33.464064	17.718784
468	15	3	0.060000	31.620234	34.747455	17.881320
469	15	3	0.060000	31.068032	33.250701	18.684478
470	15	3	0.060000	29.296121	34.599321	19.925030
471	15	3	0.060000	30.008606	36.101372	19.215518
472	15	3	0.060000	31.497678	34.063385	20.988143
473	15	3	0.060000	32.216735	35.543805	20.244025
474	15	3	0.060000	29.812845	35.526241	22.185135
475	15	3	0.060000	30.619855	36.986935	21.523117
476	15	3	0.060000	31.258235	36.357418	23.907988
477	15	3	0.060000	32.006803	34.847890	23.292861
478	15	3	0.060000	33.655230	36.173316	21.975447
479	15	3	0.060000	32.821864	37.714249	22.443510
480	15	3	0.060000	33.658019	36.714318	23.688994
481	16	1	-0.180000	10.155729	36.485156	31.006422
482	16	2	-0.120000	9.467145	35.123348	30.998078
483	16	2	-0.120000	7.959903	35.267200	30.742705
484	16	2	-0.120000	7.253346	33.914123	30.542697
485	16	2	-0.120000	7.322447	32.960038	31.748986
486	16	2	-0.120000	6.646828	33.531293	33.004422
487	16	2	-0.120000	6.576852	32.479234	34.118069
488	16	2	-0.120000	5.927300	33.059888	35.383018
489	16	2	-0.120000	5.727075	32.004534	36.481495
490	16	1	-0.180000	7.042626	31.555718	37.117154
491	16	3	0.060000	9.723486	37.130696	31.800553
492	16	3	0.060000	10.036400	36.984829	30.021478
493	16	3	0.060000	11.239752	36.352470	31.207219
494	16	3	0.060000	9.926275	34.493099	30.205668
495	16	3	0.060000	9.640787	34.640083	31.982795
496	16	3	0.060000	7.808304	35.864275	29.816686
497	16	3	0.060000	7.485024	35.831505	31.573010
498	16	3	0.060000	7.700061	33.403027	29.662054
499	16	3	0.060000	6.185899	34.105701	30.297447
500	16	3	0.060000	8.377915	32.695711	31.971381
501	16	3	0.060000	6.806188	32.018078	31.460744
502	16	3	0.060000	5.617548	33.867734	32.750441
503	16	3	0.060000	7.227018	34.403467	33.374779
504	16	3	0.060000	5.982134	31.608530	33.764030
505	16	3	0.060000	7.607120	32.134853	34.351229
506	16	3	0.060000	4.928760	33.471343	35.117445
507	16	3	0.060000	6.543756	33.898604	35.775014
508	16	3	0.060000	5.088522	32.444412	37.278027
509	16	3	0.060000	5.190840	31.121368	36.071173
510	16	3	0.060000	7.658991	30.989975	36.388368
511	16	3	0.060000	7.615831	32.432788	37.485858
512	16	3	0.060000	6.827052	30.888112	37.977844
513	17	1	-0.180000	33.126096	14.942108	31.029568
514	17	2	-0.120000	34.233827	15.984090	30.903296
515	17	2	-0.120000	35.556103	15.458384	31.480274
516	17	2	-0.120000	36.744473	16.399323	31.211097
517	17	2	-0.120000	36.616151	17.802519	31.831387
518	17	2	-0.120000	36.525787	17.774181	33.364339
519	17	2	-0.120000	36.586481	19.192324	33.944962
520	17	2	-0.120000	36.466908	19.165224	35.476020
521	17	2	-0.120000	36.645372	20.554744	36.106809
522	17	1	-0.180000	35.466301	21.486551	35.828059
523	17	3	0.060000	32.965109	14.678167	32.096629
524	17	3	0.060000	33.390671	14.025565	30.460381
525	17	3	0.060000	32.180074	15.353466	30.618645
526	17	3	0.060000	34.365456	16.240675	29.829626
527	17	3	0.060000	33.916776	16.896520	31.451305
528	17	3	0.060000	35.790092	14.479524	31.006909
529	17	3	0.060000	35.449396	15.273558	32.570142
530	17	3	0.060000	36.873007	16.509319	30.112150
531	17	3	0.060000	37.669897	15.919358	31.597772
532	17	3	0.060000	35.736770	18.332238	31.407797
533	17	3	0.060000	37.517594	18.382921	31.535703
534	17	3	0.060000	37.366740	17.172299	33.773793
535	17	3	0.060000	35.566934	17.304535	33.671754
536	17	3	0.060000	37.551324	19.665665	33.658283
537	17	3	0.060000	35.755158	19.791444	33.515579
538	17	3	0.060000	37.257290	18.498932	35.886215
539	17	3	0.060000	35.482089	18.741385	35.772021
540	17	3	0.060000	36.737632	20.430776	37.207639
541	17	3	0.060000	37.585224	21.023283	35.742056
542	17	3	0.060000	35.416536	21.746797	34.750611
543	17	3	0.060000	34.512137	21.010600	36.139183
544	17	3	0.060000	35.595662	22.426934	36.404171
545	18	1	-0.180000	10.957743	29.524688	28.715711
546	18	2	-0.120000	10.689903	28.785858	27.407610
547	18	2	-0.120000	9.924581	29.674916	26.416881
548	18	2	-0.120000	9.792076	29.040896	25.020276
549	18	2	-0.120000	9.016764	27.711417	24.980742
550	18	2	-0.120000	7.559952	27.853113	25.446072
551	18	2	-0.120000	6.780101	26.552950	25.215112
552	18	2	-0.120000	5.331223	26.685978	25.707279
553	18	2	-0.120000	4.481745	25.447343	25.383735
554	18	1	-0.180000	4.869239	24.229226	26.221717
555	18	3	0.060000	10.000277	29.834238	29.186496
556	18	3	0.060000	11.583667	30.423629	28.530909
557	18	3	0.060000	11.498360	28.854804	29.417152
558	18	3	0.060000	11.661137	28.475468	26.964563
559	18	3	0.060000	10.096321	27.875868	27.637702
560	18	3	0.060000	10.473607	30.634847	26.298165
561	18	3	0.060000	8.921914	29.923803	26.824401
562	18	3	0.060000	10.809689	28.868799	24.606571
563	18	3	0.060000	9.289278	29.769607	24.347618
564	18	3	0.060000	9.538073	26.942955	25.589876
565	18	3	0.060000	9.023991	27.350867	23.928674
566	18	3	0.060000	7.071048	28.680274	24.885808
567	18	3	0.060000	7.537655	28.093576	26.530577
568	18	3	0.060000	6.780547	26.312275	24.129187
569	18	3	0.060000	7.286579	25.729078	25.762040
570	18	3	0.060000	4.861847	27.562655	25.209253
571	18	3	0.060000	5.318880	26.874765	26.803331
572	18	3	0.060000	3.416834	25.688294	25.592573
573	18	3	0.060000	4.563663	25.198073	24.303435
574	18	3	0.060000	5.882623	23.869607	25.948174
575	18	3	0.060000	4.843268	24.477272	27.304102
576	18	3	0.060000	4.148396	23.406437	26.031029
577	19	1	-0.180000	18.764432	3.264949	15.567868
578	19	2	-0.120000	18.223688	4.037706	14.368209
579	19	2	-0.120000	17.152681	3.226523	13.624831
580	19	2	-0.120000	16.447731	4.034042	12.519841
581	19	2	-0.120000	17.368101	4.531327	11.390321
582	19	2	-0.120000	18.042102	3.387025	10.618825
583	19	2	-0.120000	18.797120	3.919191	9.394618
584	19	2	-0.120000	19.494909	2.777801	8.639971
585	19	2	-0.120000	20.161409	3.250946	7.339039
586	19	1	-0.180000	21.397658	4.114550	7.588136
587	19	3	0.060000	19.215564	2.305299	15.236581
588	19	3	0.060000	17.949091	3.056526	16.292992
589	19	3	0.060000	19.545684	3.867799	16.077031
590	19	3	0.060000	17.791112	4.997918	14.724296
591	19	3	0.060000	19.072118	4.260140	13.686994
592	19	3	0.060000	16.375512	2.906145	14.353088
593	19	3	0.060000	17.600221	2.302421	13.201626
594	19	3	0.060000	15.948343	4.913627	12.981626
595	19	3	0.060000	15.646022	3.403034	12.077818
596	19	3	0.060000	18.137317	5.222104	11.795875
597	19	3	0.060000	16.742954	5.120834	10.684228
598	19	3	0.060000	17.269698	2.658660	10.287170