Noctanol.data - created by mBuild; units = real

5600 atoms
5400 bonds
10200 angles
13800 dihedrals
0 impropers

7 atom types
8 bond types
15 angle types
15 dihedral types

0.000000 40.000000 xlo xhi
0.000000 40.000000 ylo yhi
0.000000 40.000000 zlo zhi

Masses

1	12.010780	# opls_135
2	12.010780	# opls_136
3	1.007947	# opls_140
4	14.006720	# opls_900
5	12.010780	# opls_906
6	1.007947	# opls_909
7	1.007947	# opls_911

Pair Coeffs # lj
#	epsilon (kcal/mol)		sigma (Angstrom)
1	0.06600		3.50000		# opls_135
2	0.06600		3.50000		# opls_136
3	0.03000		2.50000		# opls_140
4	0.17000		3.30000		# opls_900
5	0.06600		3.50000		# opls_906
6	0.00000		10.00000		# opls_909
7	0.01500		2.50000		# opls_911

Bond Coeffs # harmonic
#	k(kcal/mol/angstrom^2)		req(angstrom)
1	268.0		1.529		# opls_135	opls_136
2	268.0		1.529		# opls_136	opls_136
3	268.0		1.529		# opls_136	opls_906
4	382.0		1.448		# opls_900	opls_906
5	340.0		1.09		# opls_135	opls_140
6	340.0		1.09		# opls_136	opls_140
7	340.0		1.09		# opls_906	opls_911
8	434.0		1.01		# opls_900	opls_909

Angle Coeffs # harmonic
#	k(kcal/mol/rad^2)		theteq(deg)
1	58.35		112.70000	# opls_135	opls_136	opls_136
2	37.5		110.70000	# opls_135	opls_136	opls_140
3	37.5		110.70000	# opls_136	opls_135	opls_140
4	58.35		112.70000	# opls_136	opls_136	opls_136
5	37.5		110.70000	# opls_136	opls_136	opls_140
6	58.35		112.70000	# opls_136	opls_136	opls_906
7	56.2		109.47000	# opls_136	opls_906	opls_900
8	37.5		110.70000	# opls_136	opls_906	opls_911
9	37.5		110.70000	# opls_140	opls_136	opls_906
10	35.0		109.50000	# opls_906	opls_900	opls_909
11	35.0		109.50000	# opls_900	opls_906	opls_911
12	33.0		107.80000	# opls_140	opls_135	opls_140
13	33.0		107.80000	# opls_140	opls_136	opls_140
14	33.0		107.80000	# opls_911	opls_906	opls_911
15	43.6		106.40000	# opls_909	opls_900	opls_909

Dihedral Coeffs # opls
#	f1(kcal/mol)	f2(kcal/mol)	f3(kcal/mol)	f4(kcal/mol)
1	1.30000	-0.05000		0.20000		-0.00000	# opls_135	opls_136	opls_136	opls_136
2	-0.00000	-0.00000		0.30000		-0.00000	# opls_135	opls_136	opls_136	opls_140
3	1.30000	-0.05000		0.20000		-0.00000	# opls_136	opls_136	opls_136	opls_136
4	-0.00000	-0.00000		0.30000		-0.00000	# opls_136	opls_136	opls_136	opls_140
5	-0.00000	-0.00000		0.30000		-0.00000	# opls_136	opls_136	opls_135	opls_140
6	1.30000	-0.05000		0.20000		-0.00000	# opls_136	opls_136	opls_136	opls_906
7	2.39200	-0.67400		0.55000		-0.00000	# opls_136	opls_136	opls_906	opls_900
8	-0.00000	-0.00000		0.30000		-0.00000	# opls_136	opls_136	opls_906	opls_911
9	-0.19000	-0.41700		0.41800		-0.00000	# opls_136	opls_906	opls_900	opls_909
10	-0.00000	-0.00000		0.30000		-0.00000	# opls_906	opls_136	opls_136	opls_140
11	-1.01300	-0.70900		0.47300		-0.00000	# opls_900	opls_906	opls_136	opls_140
12	-0.00000	-0.00000		0.30000		-0.00000	# opls_140	opls_135	opls_136	opls_140
13	-0.00000	-0.00000		0.30000		-0.00000	# opls_140	opls_136	opls_136	opls_140
14	-0.00000	-0.00000		0.30000		-0.00000	# opls_140	opls_136	opls_906	opls_911
15	0.00000	-0.00000		0.40000		-0.00000	# opls_911	opls_906	opls_900	opls_909

Atoms # full

1	1	1	-0.180000	30.319324	17.292466	36.551324
2	1	2	-0.120000	30.887132	18.692399	36.317201
3	1	2	-0.120000	30.034528	19.797070	36.961216
4	1	2	-0.120000	28.729601	20.058470	36.189847
5	1	2	-0.120000	27.822993	21.094665	36.879470
6	1	2	-0.120000	28.425736	22.505675	37.007037
7	1	2	-0.120000	28.758468	23.139664	35.645924
8	1	5	0.060000	29.097860	24.630194	35.765547
9	1	4	-0.900000	30.363566	24.822746	36.469231
10	1	3	0.060000	31.036467	16.535943	36.168747
11	1	3	0.060000	29.359315	17.158925	36.012004
12	1	3	0.060000	30.163136	17.112178	37.636141
13	1	3	0.060000	30.992340	18.875574	35.225678
14	1	3	0.060000	31.904959	18.730510	36.762767
15	1	3	0.060000	29.809241	19.533537	38.017863
16	1	3	0.060000	30.644237	20.725088	36.964916
17	1	3	0.060000	28.150215	19.114412	36.118962
18	1	3	0.060000	28.958128	20.377673	35.151080
19	1	3	0.060000	26.870044	21.163384	36.310616
20	1	3	0.060000	27.565259	20.726489	37.896507
21	1	3	0.060000	27.678372	23.142774	37.528685
22	1	3	0.060000	29.330243	22.474939	37.649141
23	1	3	0.060000	27.882051	23.035634	34.969549
24	1	3	0.060000	29.619632	22.613787	35.180645
25	1	7	0.060000	29.187158	25.049462	34.739091
26	1	7	0.060000	28.278857	25.176946	36.284721
27	1	6	0.360000	30.657163	25.816630	36.329420
28	1	6	0.360000	30.190060	24.714362	37.494686
29	2	1	-0.180000	19.133296	17.092173	21.740130
30	2	2	-0.120000	18.623485	18.470344	22.161755
31	2	2	-0.120000	19.618502	19.597403	21.842900
32	2	2	-0.120000	20.822018	19.608486	22.800814
33	2	2	-0.120000	21.872479	20.672031	22.431189
34	2	2	-0.120000	21.377033	22.128254	22.498041
35	2	2	-0.120000	20.903884	22.535542	23.903575
36	2	5	0.060000	20.672627	24.046510	24.024717
37	2	4	-0.900000	19.525842	24.465280	23.222363
38	2	3	0.060000	18.327856	16.341752	21.885459
39	2	3	0.060000	20.003104	16.785813	22.356486
40	2	3	0.060000	19.421871	17.095287	20.667544
41	2	3	0.060000	18.384621	18.464646	23.247553
42	2	3	0.060000	17.678301	18.671252	21.612015
43	2	3	0.060000	19.966730	19.508156	20.790531
44	2	3	0.060000	19.070947	20.558572	21.939404
45	2	3	0.060000	21.329656	18.622157	22.763169
46	2	3	0.060000	20.476278	19.755770	23.845765
47	2	3	0.060000	22.743374	20.559339	23.113296
48	2	3	0.060000	22.241305	20.470444	21.401784
49	2	3	0.060000	22.223835	22.783789	22.198434
50	2	3	0.060000	20.566091	22.287201	21.757442
51	2	3	0.060000	21.674459	22.240683	24.649018
52	2	3	0.060000	19.958630	22.008520	24.155322
53	2	7	0.060000	20.472209	24.282567	25.093118
54	2	7	0.060000	21.584605	24.607076	23.719254
55	2	6	0.360000	19.275768	25.439334	23.509128
56	2	6	0.360000	19.827897	24.526914	22.223177
57	3	1	-0.180000	11.460170	3.811684	33.988386
58	3	2	-0.120000	11.225956	5.319580	34.080172
59	3	2	-0.120000	12.020196	6.111440	33.029397
60	3	2	-0.120000	13.519169	6.194943	33.364477
61	3	2	-0.120000	14.339457	6.902513	32.270087
62	3	2	-0.120000	13.967329	8.376640	32.027206
63	3	2	-0.120000	14.160963	9.256047	33.273974
64	3	5	0.060000	14.052114	10.751662	32.953874
65	3	4	-0.900000	12.684926	11.108037	32.582320
66	3	3	0.060000	10.773583	3.289563	34.687651
67	3	3	0.060000	12.500866	3.554266	34.272999
68	3	3	0.060000	11.256882	3.448159	32.958701
69	3	3	0.060000	11.479674	5.675925	35.102272
70	3	3	0.060000	10.142813	5.510672	33.918190
71	3	3	0.060000	11.876522	5.656718	32.024760
72	3	3	0.060000	11.598441	7.138233	33.001231
73	3	3	0.060000	13.929595	5.168808	33.467222
74	3	3	0.060000	13.663695	6.701574	34.342020
75	3	3	0.060000	15.415599	6.846258	32.544283
76	3	3	0.060000	14.220758	6.345427	31.315146
77	3	3	0.060000	14.621566	8.756924	31.212391
78	3	3	0.060000	12.921394	8.448679	31.663603
79	3	3	0.060000	15.168360	9.064757	33.704056
80	3	3	0.060000	13.401330	8.999524	34.043253
81	3	7	0.060000	14.340523	11.323338	33.863477
82	3	7	0.060000	14.759592	11.029652	32.140583
83	3	6	0.360000	12.613901	12.151288	32.593878
84	3	6	0.360000	12.527334	10.818793	31.589893
85	4	1	-0.180000	21.016648	14.538398	31.470106
86	4	2	-0.120000	20.815080	13.024673	31.399120
87	4	2	-0.120000	21.325360	12.295754	32.652228
88	4	2	-0.120000	22.860749	12.217339	32.703250
89	4	2	-0.120000	23.385306	11.575077	34.000770
90	4	2	-0.120000	22.967099	10.109288	34.217765
91	4	2	-0.120000	23.465296	9.173539	33.103559
92	4	5	0.060000	23.283040	7.693733	33.461517
93	4	4	-0.900000	21.867031	7.336447	33.500518
94	4	3	0.060000	20.523972	15.016408	30.597316
95	4	3	0.060000	22.094975	14.796441	31.439385
96	4	3	0.060000	20.563800	14.948301	32.397809
97	4	3	0.060000	21.314891	12.623018	30.490876
98	4	3	0.060000	19.725922	12.826353	31.297344
99	4	3	0.060000	20.936319	12.796371	33.565867
100	4	3	0.060000	20.911544	11.265667	32.626698
101	4	3	0.060000	23.282080	13.243009	32.653849
102	4	3	0.060000	23.243987	11.666198	31.818646
103	4	3	0.060000	24.495732	11.633215	33.999014
104	4	3	0.060000	23.032606	12.175882	34.867362
105	4	3	0.060000	23.399544	9.778056	35.187219
106	4	3	0.060000	21.863798	10.040128	34.314298
107	4	3	0.060000	24.547542	9.358045	32.927168
108	4	3	0.060000	22.919668	9.381877	32.158296
109	4	7	0.060000	23.788936	7.082940	32.681535
110	4	7	0.060000	23.767268	7.465344	34.437534
111	4	6	0.360000	21.802871	6.292956	33.524196
112	4	6	0.360000	21.467816	7.671011	34.407217
113	5	1	-0.180000	15.859856	36.500524	21.765966
114	5	2	-0.120000	16.499661	35.114536	21.847941
115	5	2	-0.120000	15.865916	34.106789	20.875932
116	5	2	-0.120000	14.477926	33.633813	21.340636
117	5	2	-0.120000	13.792844	32.698890	20.326832
118	5	2	-0.120000	14.528462	31.372286	20.063183
119	5	2	-0.120000	14.682352	30.511554	21.328386
120	5	5	0.060000	15.164906	29.091170	21.010853
121	5	4	-0.900000	16.542403	29.104134	20.524448
122	5	3	0.060000	16.434513	37.208959	22.399113
123	5	3	0.060000	14.815203	36.477373	22.138096
124	5	3	0.060000	15.872429	36.873795	20.719909
125	5	3	0.060000	16.436149	34.734395	22.890775
126	5	3	0.060000	17.577127	35.216679	21.593806
127	5	3	0.060000	15.798697	34.552603	19.859349
128	5	3	0.060000	16.545768	33.230722	20.818633
129	5	3	0.060000	13.815217	34.514560	21.471249
130	5	3	0.060000	14.556147	33.136971	22.330677
131	5	3	0.060000	12.767716	32.472230	20.693120
132	5	3	0.060000	13.678056	33.238055	19.361188
133	5	3	0.060000	13.937052	30.805580	19.311091
134	5	3	0.060000	15.521572	31.572913	19.610570
135	5	3	0.060000	13.699409	30.438113	21.843013
136	5	3	0.060000	15.404601	30.986045	22.026849
137	5	7	0.060000	15.117129	28.490976	21.946190
138	5	7	0.060000	14.494893	28.608687	20.264168
139	5	6	0.360000	16.893499	28.119189	20.537328
140	5	6	0.360000	16.534266	29.394748	19.520015
141	6	1	-0.180000	36.967280	32.554622	22.104718
142	6	2	-0.120000	36.562589	32.310364	23.558538
143	6	2	-0.120000	35.084411	32.633160	23.828318
144	6	2	-0.120000	34.810977	34.146248	23.872696
145	6	2	-0.120000	33.317866	34.480671	24.045898
146	6	2	-0.120000	32.687740	33.987134	25.361148
147	6	2	-0.120000	33.357717	34.588093	26.608249
148	6	5	0.060000	32.560392	34.310285	27.888199
149	6	4	-0.900000	32.590913	32.888894	28.224316
150	6	3	0.060000	38.004954	32.192657	21.945972
151	6	3	0.060000	36.940380	33.636680	21.862344
152	6	3	0.060000	36.293095	32.003530	21.415154
153	6	3	0.060000	37.215165	32.905864	24.233497
154	6	3	0.060000	36.734468	31.236319	23.788402
155	6	3	0.060000	34.444877	32.150292	23.057252
156	6	3	0.060000	34.823738	32.189798	24.812419
157	6	3	0.060000	35.139316	34.606320	22.917454
158	6	3	0.060000	35.407506	34.617933	24.681905
159	6	3	0.060000	33.194010	35.583872	23.982365
160	6	3	0.060000	32.750529	34.043276	23.195511
161	6	3	0.060000	31.615708	34.282410	25.349929
162	6	3	0.060000	32.718387	32.878701	25.403716
163	6	3	0.060000	33.442414	35.689748	26.483369
164	6	3	0.060000	34.381479	34.173233	26.728409
165	6	7	0.060000	33.023478	34.888334	28.718128
166	6	7	0.060000	31.509268	34.659699	27.777316
167	6	6	0.360000	32.234272	32.785545	29.201904
168	6	6	0.360000	31.904639	32.390962	27.612353
169	7	1	-0.180000	18.119058	18.749185	2.857783
170	7	2	-0.120000	19.130176	18.932368	3.989647
171	7	2	-0.120000	19.101605	17.780712	5.006928
172	7	2	-0.120000	17.869725	17.837975	5.926364
173	7	2	-0.120000	17.780650	16.635894	6.884636
174	7	2	-0.120000	18.942506	16.514421	7.887560
175	7	2	-0.120000	19.059535	17.733087	8.818386
176	7	5	0.060000	20.032031	17.488208	9.978327
177	7	4	-0.900000	21.406669	17.385565	9.494496
178	7	3	0.060000	18.269486	19.544710	2.097851
179	7	3	0.060000	17.080066	18.829533	3.237725
180	7	3	0.060000	18.258855	17.762706	2.366823
181	7	3	0.060000	18.946615	19.901915	4.501827
182	7	3	0.060000	20.146039	18.978083	3.540331
183	7	3	0.060000	19.138007	16.804888	4.474810
184	7	3	0.060000	20.019225	17.864437	5.626556
185	7	3	0.060000	16.948968	17.829621	5.306609
186	7	3	0.060000	17.866034	18.788747	6.500098
187	7	3	0.060000	16.826092	16.706191	7.450592
188	7	3	0.060000	17.731473	15.700919	6.284845
189	7	3	0.060000	18.759515	15.606587	8.503123
190	7	3	0.060000	19.896470	16.351270	7.344689
191	7	3	0.060000	18.059498	17.964657	9.245839
192	7	3	0.060000	19.404763	18.619608	8.244337
193	7	7	0.060000	19.958799	18.348019	10.680276
194	7	7	0.060000	19.748698	16.568716	10.538241
195	7	6	0.360000	22.040948	17.444585	10.323809
196	7	6	0.360000	21.544068	16.429783	9.093235
197	8	1	-0.180000	11.766101	19.953989	24.734793
198	8	2	-0.120000	13.025019	20.635870	24.198885
199	8	2	-0.120000	13.133170	20.569307	22.667265
200	8	2	-0.120000	13.523581	19.168742	22.165101
201	8	2	-0.120000	13.540338	19.065981	20.628749
202	8	2	-0.120000	14.567299	19.972684	19.926067
203	8	2	-0.120000	16.016634	19.669656	20.341858
204	8	5	0.060000	17.039421	20.379579	19.446821
205	8	4	-0.900000	16.997180	21.825560	19.650813
206	8	3	0.060000	11.684393	20.138370	25.826724
207	8	3	0.060000	11.810550	18.857369	24.574272
208	8	3	0.060000	10.860402	20.364544	24.239940
209	8	3	0.060000	13.924879	20.181330	24.667595
210	8	3	0.060000	12.993513	21.705035	24.501948
211	8	3	0.060000	12.172870	20.888256	22.205957
212	8	3	0.060000	13.915561	21.294652	22.359511
213	8	3	0.060000	12.783655	18.427830	22.533229
214	8	3	0.060000	14.510583	18.875888	22.581293
215	8	3	0.060000	13.745466	18.009717	20.348290
216	8	3	0.060000	12.527541	19.311407	20.240996
217	8	3	0.060000	14.464367	19.808668	18.831047
218	8	3	0.060000	14.326179	21.038632	20.118402
219	8	3	0.060000	16.195683	18.574346	20.273662
220	8	3	0.060000	16.184900	19.983427	21.394412
221	8	7	0.060000	18.052684	20.006027	19.713522
222	8	7	0.060000	16.858778	20.133909	18.376186
223	8	6	0.360000	17.846161	22.235498	19.198338
224	8	6	0.360000	16.177284	22.208278	19.126690
225	9	1	-0.180000	7.672381	32.504762	30.849311
226	9	2	-0.120000	7.633169	30.980670	30.736884
227	9	2	-0.120000	8.997250	30.327341	31.009708
228	9	2	-0.120000	9.983568	30.515484	29.844397
229	9	2	-0.120000	11.383273	29.949104	30.146486
230	9	2	-0.120000	11.433437	28.429092	30.386420
231	9	2	-0.120000	10.949031	27.615565	29.174476
232	9	5	0.060000	11.255557	26.119968	29.317336
233	9	4	-0.900000	10.453236	25.521787	30.381629
234	9	3	0.060000	6.641095	32.906769	30.760856
235	9	3	0.060000	8.283863	32.946487	30.036116
236	9	3	0.060000	8.086547	32.811969	31.833087
237	9	3	0.060000	7.262253	30.689357	29.730106
238	9	3	0.060000	6.905433	30.598422	31.485374
239	9	3	0.060000	9.431007	30.735209	31.948967
240	9	3	0.060000	8.819277	29.241772	31.160840
241	9	3	0.060000	10.107666	31.599449	29.640486
242	9	3	0.060000	9.573745	30.056303	28.920086
243	9	3	0.060000	12.055613	30.199003	29.296818
244	9	3	0.060000	11.793029	30.462831	31.043442
245	9	3	0.060000	12.490287	28.159303	30.602862
246	9	3	0.060000	10.840947	28.167752	31.287548
247	9	3	0.060000	11.455238	27.988365	28.257314
248	9	3	0.060000	9.853326	27.744248	29.042164
249	9	7	0.060000	11.008468	25.621314	28.354184
250	9	7	0.060000	12.339730	25.960300	29.513090
251	9	6	0.360000	10.529003	24.482726	30.291279
252	9	6	0.360000	10.890657	25.764518	31.299862
253	10	1	-0.180000	27.710810	22.897675	20.775447
254	10	2	-0.120000	27.536602	21.716225	19.821056
255	10	2	-0.120000	27.743043	22.103937	18.348286
256	10	2	-0.120000	26.558781	22.903362	17.778538
257	10	2	-0.120000	26.797029	23.379900	16.333765
258	10	2	-0.120000	26.972348	22.255170	15.297056
259	10	2	-0.120000	25.742141	21.337817	15.195399
260	10	5	0.060000	25.814188	20.399636	13.984695
261	10	4	-0.900000	26.875336	19.409818	14.153464
262	10	3	0.060000	27.668591	22.533232	21.823485
263	10	3	0.060000	26.899428	23.641319	20.637718
264	10	3	0.060000	28.694204	23.387767	20.612747
265	10	3	0.060000	26.529655	21.266632	19.962369
266	10	3	0.060000	28.289147	20.942953	20.088784
267	10	3	0.060000	28.685580	22.683785	18.238244
268	10	3	0.060000	27.854169	21.161854	17.771134
269	10	3	0.060000	26.396418	23.809858	18.398105
270	10	3	0.060000	25.628367	22.299925	17.836370
271	10	3	0.060000	25.939544	24.017930	16.027065
272	10	3	0.060000	27.702381	24.025067	16.312732
273	10	3	0.060000	27.147131	22.735006	14.309244
274	10	3	0.060000	27.878471	21.659735	15.533223
275	10	3	0.060000	24.827082	21.961971	15.097871
276	10	3	0.060000	25.646655	20.724471	16.116987
277	10	7	0.060000	24.838694	19.872581	13.895276
278	10	7	0.060000	25.972082	20.981137	13.048654
279	10	6	0.360000	26.739953	18.671209	13.425673
280	10	6	0.360000	27.789938	19.866916	13.934436
281	11	1	-0.180000	26.146264	29.765546	23.161439
282	11	2	-0.120000	26.222577	28.967270	24.462963
283	11	2	-0.120000	25.256936	27.771880	24.486790
284	11	2	-0.120000	23.793452	28.201353	24.686641
285	11	2	-0.120000	22.807302	27.020825	24.615369
286	11	2	-0.120000	22.994127	25.948868	25.704646
287	11	2	-0.120000	22.817581	26.504591	27.127771
288	11	5	0.060000	22.734543	25.392865	28.180552
289	11	4	-0.900000	24.016542	24.705681	28.316617
290	11	3	0.060000	26.944827	30.537071	23.155782
291	11	3	0.060000	25.169067	30.282356	23.070275
292	11	3	0.060000	26.295621	29.098210	22.286179
293	11	3	0.060000	26.023394	29.639196	25.326031
294	11	3	0.060000	27.259888	28.582168	24.570827
295	11	3	0.060000	25.359394	27.183990	23.548389
296	11	3	0.060000	25.560529	27.118770	25.331925
297	11	3	0.060000	23.507624	28.913623	23.884810
298	11	3	0.060000	23.682110	28.738196	25.652330
299	11	3	0.060000	21.772243	27.421566	24.682354
300	11	3	0.060000	22.900558	26.534132	23.619990
301	11	3	0.060000	22.232741	25.157586	25.529352
302	11	3	0.060000	23.989629	25.470190	25.598724
303	11	3	0.060000	21.879085	27.099083	27.174848
304	11	3	0.060000	23.665842	27.175310	27.383166
305	11	7	0.060000	22.467645	25.857142	29.155530
306	11	7	0.060000	21.931683	24.667110	27.919892
307	11	6	0.360000	23.974611	24.123115	29.184034
308	11	6	0.360000	24.115896	24.033524	27.521795
309	12	1	-0.180000	35.827931	11.249075	24.515115
310	12	2	-0.120000	35.851271	9.900243	25.234239
311	12	2	-0.120000	35.019262	8.826634	24.515134
312	12	2	-0.120000	33.505959	9.038652	24.691580
313	12	2	-0.120000	32.662039	8.025751	23.895935
314	12	2	-0.120000	32.845566	6.554897	24.312383
315	12	2	-0.120000	32.464010	6.296215	25.779618
316	12	5	0.060000	32.388634	4.799955	26.106267
317	12	4	-0.900000	33.714423	4.188028	26.060597
318	12	3	0.060000	36.537297	11.943503	25.012662
319	12	3	0.060000	34.816779	11.703084	24.557110
320	12	3	0.060000	36.137098	11.130341	23.454905
321	12	3	0.060000	35.493619	10.027317	26.279219
322	12	3	0.060000	36.906305	9.552913	25.281313
323	12	3	0.060000	35.280302	8.806678	23.434315
324	12	3	0.060000	35.299803	7.844548	24.950769
325	12	3	0.060000	33.232256	10.049974	24.325148
326	12	3	0.060000	33.238641	9.000500	25.768723
327	12	3	0.060000	31.589329	8.297017	24.006099
328	12	3	0.060000	32.909306	8.121473	22.816101
329	12	3	0.060000	32.193938	5.937582	23.655978
330	12	3	0.060000	33.891402	6.235240	24.124173
331	12	3	0.060000	31.468541	6.747497	25.984062
332	12	3	0.060000	33.205844	6.772263	26.456150
333	12	7	0.060000	31.974123	4.689029	27.132545
334	12	7	0.060000	31.698027	4.281059	25.404087
335	12	6	0.360000	33.643516	3.242282	26.501152
336	12	6	0.360000	33.966244	4.022105	25.059366
337	13	1	-0.180000	26.185945	20.734523	24.524403
338	13	2	-0.120000	24.858545	20.464298	23.815870
339	13	2	-0.120000	24.890501	19.191697	22.954792
340	13	2	-0.120000	25.692112	19.380137	21.655530
341	13	2	-0.120000	25.812067	18.084506	20.832019
342	13	2	-0.120000	24.477492	17.510164	20.322546
343	13	2	-0.120000	23.723507	18.479253	19.396449
344	13	5	0.060000	22.545185	17.804955	18.683668
345	13	4	-0.900000	21.488480	17.461392	19.632139
346	13	3	0.060000	26.064187	21.592234	25.219019
347	13	3	0.060000	26.979282	20.994307	23.794029
348	13	3	0.060000	26.500619	19.846857	25.113262
349	13	3	0.060000	24.581465	21.342596	23.193083
350	13	3	0.060000	24.071990	20.342690	24.592076
351	13	3	0.060000	25.308608	18.346450	23.544242
352	13	3	0.060000	23.839910	18.940141	22.697975
353	13	3	0.060000	26.723883	19.704382	21.905073
354	13	3	0.060000	25.238379	20.186199	21.041085
355	13	3	0.060000	26.472598	18.281285	19.959434
356	13	3	0.060000	26.317312	17.310898	21.450570
357	13	3	0.060000	24.707128	16.578808	19.760045
358	13	3	0.060000	23.836838	17.220838	21.181166
359	13	3	0.060000	24.422966	18.865475	18.623144
360	13	3	0.060000	23.340273	19.343766	19.979874
361	13	7	0.060000	22.139411	18.518229	17.932696
362	13	7	0.060000	22.886551	16.896567	18.138190
363	13	6	0.360000	20.633739	17.217360	19.081304
364	13	6	0.360000	21.767805	16.587656	20.134105
365	14	1	-0.180000	11.875286	2.977998	3.070699
366	14	2	-0.120000	11.032765	4.160929	3.548049
367	14	2	-0.120000	10.776181	4.137387	5.063172
368	14	2	-0.120000	9.742249	3.073051	5.468569
369	14	2	-0.120000	9.549257	2.974996	6.993153
370	14	2	-0.120000	9.001132	4.247853	7.663912
371	14	2	-0.120000	7.616871	4.655860	7.132279
372	14	5	0.060000	6.965232	5.750618	7.985537
373	14	4	-0.900000	7.687309	7.013845	7.854694
374	14	3	0.060000	12.125478	3.113936	1.997428
375	14	3	0.060000	11.316213	2.025680	3.174842
376	14	3	0.060000	12.822410	2.916699	3.647696
377	14	3	0.060000	10.068270	4.180304	2.995403
378	14	3	0.060000	11.579870	5.096305	3.299652
379	14	3	0.060000	11.732091	3.969934	5.606223
380	14	3	0.060000	10.393919	5.139931	5.349101
381	14	3	0.060000	10.084967	2.077002	5.118728
382	14	3	0.060000	8.770965	3.275573	4.969826
383	14	3	0.060000	8.856720	2.131818	7.207331
384	14	3	0.060000	10.523848	2.718769	7.463116
385	14	3	0.060000	8.923116	4.044260	8.754338
386	14	3	0.060000	9.722418	5.082062	7.540553
387	14	3	0.060000	6.947407	3.768041	7.134950
388	14	3	0.060000	7.702703	5.022010	6.086715
389	14	7	0.060000	5.920789	5.892400	7.629998
390	14	7	0.060000	6.920224	5.438875	9.053262
391	14	6	0.360000	7.088349	7.766499	8.264949
392	14	6	0.360000	8.543328	6.967415	8.453429
393	15	1	-0.180000	32.181424	27.764802	35.360019
394	15	2	-0.120000	33.282973	28.824807	35.356643
395	15	2	-0.120000	33.155726	29.813284	34.186725
396	15	2	-0.120000	33.573199	29.191766	32.842997
397	15	2	-0.120000	33.358115	30.142015	31.650528
398	15	2	-0.120000	34.187374	31.438582	31.692540
399	15	2	-0.120000	35.703301	31.179434	31.701820
400	15	5	0.060000	36.514095	32.460026	31.469708
401	15	4	-0.900000	36.389261	33.370240	32.605571
402	15	3	0.060000	32.256711	27.159038	36.287579
403	15	3	0.060000	32.287411	27.080412	34.493592
404	15	3	0.060000	31.179830	28.244194	35.333240
405	15	3	0.060000	34.278239	28.329823	35.334748
406	15	3	0.060000	33.214159	29.396482	36.307645
407	15	3	0.060000	32.112902	30.194679	34.125383
408	15	3	0.060000	33.820264	30.674809	34.408399
409	15	3	0.060000	32.961131	28.285711	32.652221
410	15	3	0.060000	34.633196	28.863782	32.887550
411	15	3	0.060000	33.600366	29.593226	30.714273
412	15	3	0.060000	32.280934	30.412302	31.596012
413	15	3	0.060000	33.928200	32.030887	30.787791
414	15	3	0.060000	33.895164	32.047148	32.573242
415	15	3	0.060000	35.956111	30.456684	30.895514
416	15	3	0.060000	36.008254	30.735169	32.673555
417	15	7	0.060000	37.583039	32.177071	31.348606
418	15	7	0.060000	36.188715	32.963877	30.531888
419	15	6	0.360000	37.121875	34.109344	32.502840
420	15	6	0.360000	35.469790	33.862942	32.533269
421	16	1	-0.180000	15.374694	34.754468	32.456968
422	16	2	-0.120000	14.261639	35.802146	32.434325
423	16	2	-0.120000	12.911873	35.248690	32.917860
424	16	2	-0.120000	12.244987	34.332151	31.877960
425	16	2	-0.120000	10.939596	33.695487	32.389653
426	16	2	-0.120000	9.816435	34.693116	32.726948
427	16	2	-0.120000	9.378638	35.533467	31.515575
428	16	5	0.060000	8.090994	36.320248	31.787839
429	16	4	-0.900000	8.320314	37.371254	32.776300
430	16	3	0.060000	16.342748	35.240951	32.213678
431	16	3	0.060000	15.189196	33.962873	31.702458
432	16	3	0.060000	15.455662	34.294291	33.464642
433	16	3	0.060000	14.160741	36.218483	31.408397
434	16	3	0.060000	14.559552	36.636158	33.106353
435	16	3	0.060000	13.048300	34.704011	33.877767
436	16	3	0.060000	12.248692	36.117968	33.111567
437	16	3	0.060000	12.935767	33.500933	31.625258
438	16	3	0.060000	12.056808	34.894451	30.939046
439	16	3	0.060000	10.567508	32.985992	31.618552
440	16	3	0.060000	11.164480	33.095113	33.298126
441	16	3	0.060000	8.945724	34.105651	33.092069
442	16	3	0.060000	10.133925	35.354073	33.559842
443	16	3	0.060000	9.198424	34.860429	30.648999
444	16	3	0.060000	10.181992	36.248951	31.237475
445	16	7	0.060000	7.760831	36.786871	30.833571
446	16	7	0.060000	7.280716	35.637475	32.129184
447	16	6	0.360000	7.491798	38.009108	32.760321
448	16	6	0.360000	8.329743	36.933780	33.726003
449	17	1	-0.180000	7.947721	37.029580	2.774104
450	17	2	-0.120000	9.439893	37.048627	3.105906
451	17	2	-0.120000	9.852243	35.919603	4.063643
452	17	2	-0.120000	9.397051	36.179003	5.509908
453	17	2	-0.120000	9.719952	35.009924	6.458701
454	17	2	-0.120000	11.219198	34.703510	6.628677
455	17	2	-0.120000	12.010779	35.889257	7.205466
456	17	5	0.060000	13.431716	35.492312	7.623257
457	17	4	-0.900000	14.247316	35.166016	6.455958
458	17	3	0.060000	7.735232	37.788049	1.991443
459	17	3	0.060000	7.339850	37.278971	3.667756
460	17	3	0.060000	7.647469	36.032244	2.388235
461	17	3	0.060000	9.714878	38.036436	3.535628
462	17	3	0.060000	10.005676	36.927203	2.156644
463	17	3	0.060000	9.446295	34.949505	3.701946
464	17	3	0.060000	10.960465	35.854422	4.039764
465	17	3	0.060000	8.296139	36.319059	5.528232
466	17	3	0.060000	9.850082	37.119165	5.889395
467	17	3	0.060000	9.286135	35.236132	7.457231
468	17	3	0.060000	9.211346	34.093889	6.086487
469	17	3	0.060000	11.307384	33.839161	7.322715
470	17	3	0.060000	11.653643	34.385844	5.658253
471	17	3	0.060000	11.481608	36.281632	8.101252
472	17	3	0.060000	12.074531	36.706274	6.455097
473	17	7	0.060000	13.890686	36.354376	8.155763
474	17	7	0.060000	13.405373	34.632652	8.330036
475	17	6	0.360000	15.244826	35.123125	6.766902
476	17	6	0.360000	14.000912	34.199588	6.141775
477	18	1	-0.180000	18.134628	8.456678	7.982596
478	18	2	-0.120000	18.657699	9.891802	7.920558
479	18	2	-0.120000	20.027943	10.056795	8.596721
480	18	2	-0.120000	19.934863	10.021611	10.131736
481	18	2	-0.120000	21.312014	10.088893	10.817408
482	18	2	-0.120000	22.106236	11.382321	10.558997
483	18	2	-0.120000	21.375292	12.642211	11.052638
484	18	5	0.060000	22.278529	13.881245	11.041000
485	18	4	-0.900000	22.604305	14.277181	9.673023
486	18	3	0.060000	17.206499	8.377015	7.378264
487	18	3	0.060000	17.890853	8.168504	9.025595
488	18	3	0.060000	18.885520	7.750473	7.568879
489	18	3	0.060000	17.916459	10.580278	8.381654
490	18	3	0.060000	18.758324	10.176062	6.850500
491	18	3	0.060000	20.724914	9.268611	8.236576
492	18	3	0.060000	20.435386	11.040568	8.281833
493	18	3	0.060000	19.459244	9.070076	10.448481
494	18	3	0.060000	19.284166	10.845658	10.493249
495	18	3	0.060000	21.166143	9.972245	11.913557
496	18	3	0.060000	21.924179	9.224151	10.480034
497	18	3	0.060000	23.075119	11.293141	11.097398
498	18	3	0.060000	22.342717	11.472560	9.478576
499	18	3	0.060000	21.024455	12.477243	12.094804
500	18	3	0.060000	20.487140	12.842025	10.415538
501	18	7	0.060000	21.732951	14.713364	11.538286
502	18	7	0.060000	23.209274	13.691714	11.621548
503	18	6	0.360000	23.023497	15.234490	9.710302
504	18	6	0.360000	23.358119	13.645421	9.317986
505	19	1	-0.180000	23.404086	16.186333	25.551414
506	19	2	-0.120000	22.357799	16.988353	26.325415
507	19	2	-0.120000	22.735176	18.470383	26.477610
508	19	2	-0.120000	23.853504	18.689884	27.510729
509	19	2	-0.120000	24.306226	20.158938	27.600954
510	19	2	-0.120000	23.221458	21.147864	28.065524
511	19	2	-0.120000	22.684161	20.830011	29.471070
512	19	5	0.060000	21.814345	21.961702	30.031314
513	19	4	-0.900000	20.564030	22.077906	29.284677
514	19	3	0.060000	23.021637	15.159430	25.372001
515	19	3	0.060000	24.347803	16.105147	26.128582
516	19	3	0.060000	23.610305	16.661598	24.568905
517	19	3	0.060000	22.197868	16.528141	27.324751
518	19	3	0.060000	21.396387	16.926616	25.770594
519	19	3	0.060000	23.036639	18.887210	25.491667
520	19	3	0.060000	21.824159	19.010703	26.810890
521	19	3	0.060000	24.742694	18.092043	27.221101
522	19	3	0.060000	23.528243	18.325359	28.507965
523	19	3	0.060000	25.168356	20.219818	28.300565
524	19	3	0.060000	24.676923	20.482731	26.603915
525	19	3	0.060000	23.675615	22.162870	28.073962
526	19	3	0.060000	22.389786	21.170801	27.331241
527	19	3	0.060000	23.540039	20.673705	30.163495
528	19	3	0.060000	22.082712	19.896028	29.447171
529	19	7	0.060000	21.581068	21.727134	31.093355
530	19	7	0.060000	22.368607	22.926920	30.011445
531	19	6	0.360000	19.922744	22.696098	29.832530
532	19	6	0.360000	20.759913	22.584432	28.391106
533	20	1	-0.180000	34.980852	10.476621	14.585192
534	20	2	-0.120000	34.669715	10.972466	13.172973
535	20	2	-0.120000	33.267628	10.564959	12.693308
536	20	2	-0.120000	33.181457	9.073626	12.326332
537	20	2	-0.120000	31.758112	8.633449	11.937035
538	20	2	-0.120000	31.182835	9.320800	10.685186
539	20	2	-0.120000	32.019201	9.059492	9.421267
540	20	5	0.060000	31.301381	9.512762	8.144373
541	20	4	-0.900000	31.189157	10.968589	8.097139
542	20	3	0.060000	35.951435	10.900758	14.918451
543	20	3	0.060000	35.063757	9.370754	14.607602
544	20	3	0.060000	34.191716	10.803544	15.295201
545	20	3	0.060000	35.441583	10.597138	12.466295
546	20	3	0.060000	34.730202	12.082549	13.176261
547	20	3	0.060000	32.514288	10.812204	13.473088
548	20	3	0.060000	33.036928	11.172581	11.793003
549	20	3	0.060000	33.483460	8.462477	13.202260
550	20	3	0.060000	33.894015	8.840778	11.507067
551	20	3	0.060000	31.762181	7.534000	11.770832
552	20	3	0.060000	31.075179	8.827390	12.792800
553	20	3	0.060000	30.156437	8.923195	10.527131
554	20	3	0.060000	31.084202	10.411656	10.863174
555	20	3	0.060000	32.224447	7.969923	9.336860
556	20	3	0.060000	32.992429	9.591041	9.491400
557	20	7	0.060000	31.896296	9.167206	7.270280
558	20	7	0.060000	30.294016	9.044076	8.075123
559	20	6	0.360000	30.903589	11.234225	7.126860
560	20	6	0.360000	30.400736	11.258495	8.719837
561	21	1	-0.180000	34.139996	7.513234	19.315164
562	21	2	-0.120000	32.850565	7.374575	20.124591
563	21	2	-0.120000	32.800758	6.078780	20.949468
564	21	2	-0.120000	32.539169	4.837186	20.079877
565	21	2	-0.120000	32.583428	3.523483	20.882027
566	21	2	-0.120000	31.513164	3.394715	21.981333
567	21	2	-0.120000	30.078686	3.453756	21.429910
568	21	5	0.060000	29.034668	3.055498	22.479955
569	21	4	-0.900000	28.956064	4.054285	23.543206
570	21	3	0.060000	34.169328	8.515901	18.838948